# vtk DataFile Version 2.0
KG NN0
ASCII
DATASET STRUCTURED_POINTS
DIMENSIONS 150 100 1
ORIGIN 0 0 0
SPACING 1 1 1
POINT_DATA 15000
VECTORS Vectors0 float
2.04575e-05 2.54779e-06 0.0
2.01197e-05 2.40363e-06 0.0
1.97763e-05 2.27439e-06 0.0
1.94278e-05 2.15926e-06 0.0
1.90748e-05 2.05756e-06 0.0
1.87173e-05 1.96874e-06 0.0
1.83549e-05 1.89233e-06 0.0
1.79868e-05 1.82794e-06 0.0
1.76117e-05 1.77515e-06 0.0
1.72271e-05 1.73346e-06 0.0
1.68298e-05 1.70214e-06 0.0
1.64148e-05 1.68002e-06 0.0
1.59753e-05 1.66514e-06 0.0
1.55019e-05 1.65432e-06 0.0
1.49822e-05 1.64243e-06 0.0
1.44e-05 1.62136e-06 0.0
1.3735e-05 1.57864e-06 0.0
1.29632e-05 1.49557e-06 0.0
1.20587e-05 1.34506e-06 0.0
1.09994e-05 1.09007e-06 0.0
9.77802e-06 6.84874e-07 0.0
8.42587e-06 8.65264e-08 0.0
7.05262e-06 -7.04286e-07 0.0
5.8901e-06 -1.52694e-06 0.0
5.2114e-06 -1.84733e-06 0.0
4.77737e-06 -8.51271e-07 0.0
4.08859e-06 1.03826e-06 0.0
2.41345e-06 3.1217e-06 0.0
2.24768e-07 2.67251e-06 0.0
-2.92519e-07 6.03333e-07 0.0
0 0 0.0
0 0 0.0
2.3016e-06 -1.60633e-06 0.0
1.02192e-05 -3.32994e-08 0.0
2.04218e-05 6.0127e-06 0.0
2.63828e-05 3.31856e-06 0.0
2.47463e-05 3.57146e-07 0.0
2.4755e-05 -7.68342e-07 0.0
2.97954e-05 -7.30676e-06 0.0
3.20734e-05 -2.11506e-05 0.0
3.26052e-05 -2.25951e-05 0.0
3.36362e-05 -1.95144e-05 0.0
3.41543e-05 -1.46447e-05 0.0
3.39984e-05 -9.46315e-06 0.0
3.34187e-05 -4.83899e-06 0.0
3.28682e-05 -1.03938e-06 0.0
3.26764e-05 2.40614e-06 0.0
3.25524e-05 6.35553e-06 0.0
3.14771e-05 1.1055e-05 0.0
2.8292e-05 1.54112e-05 0.0
2.2738e-05 1.71139e-05 0.0
1.58944e-05 1.42573e-05 0.0
1.06795e-05 6.21931e-06 0.0
1.21211e-05 1.55348e-06 0.0
1.91879e-05 8.03646e-06 0.0
2.34793e-05 2.63741e-05 0.0
2.35298e-05 3.20212e-05 0.0
2.52736e-05 2.52451e-05 0.0
2.38729e-05 6.66521e-06 0.0
2.27932e-05 -4.34523e-06 0.0
2.48605e-05 -1.46524e-05 0.0
2.75968e-05 -1.6608e-05 0.0
3.06136e-05 -1.71692e-05 0.0
3.21965e-05 -1.79467e-05 0.0
3.11912e-05 -1.8921e-05 0.0
2.73632e-05 -1.91386e-05 0.0
2.15367e-05 -1.80481e-05 0.0
1.48805e-05 -1.5572e-05 0.0
8.38427e-06 -1.1812e-05 0.0
2.80568e-06 -6.45698e-06 0.0
0 0 0.0
0 0 0.0
2.58692e-06 -4.52778e-06 0.0
6.74664e-06 -1.69862e-05 0.0
4.45086e-06 -1.61025e-05 0.0
0 0 0.0
0 0 0.0
0 0 0.0
0 0 0.0
0 0 0.0
4.58392e-06 1.23759e-06 0.0
1.40654e-05 1.17413e-06 0.0
2.24585e-05 3.53623e-06 0.0
2.9003e-05 6.47183e-06 0.0
3.28636e-05 7.315e-06 0.0
3.27749e-05 4.00594e-06 0.0
2.87646e-05 -2.87052e-06 0.0
2.36558e-05 -9.87858e-06 0.0
1.98821e-05 -4.43841e-06 0.0
1.80376e-05 3.37991e-06 0.0
1.80448e-05 1.29624e-05 0.0
1.86393e-05 1.27532e-05 0.0
1.94744e-05 5.80665e-06 0.0
1.90111e-05 -1.75907e-06 0.0
1.74839e-05 -8.44311e-06 0.0
1.53141e-05 -1.19648e-05 0.0
1.32412e-05 -1.32651e-05 0.0
1.09694e-05 -1.31812e-05 0.0
8.0065e-06 -1.17774e-05 0.0
3.91349e-06 -7.9696e-06 0.0
0 0 0.0
0 0 0.0
1.42056e-06 -1.75509e-06 0.0
4.07516e-06 -2.78884e-06 0.0
5.23864e-06 -2.26454e-06 0.0
3.3125e-06 -2.95328e-06 0.0
0 0 0.0
0 0 0.0
2.46785e-06 4.18222e-06 0.0
4.56611e-06 5.72413e-06 0.0
6.33592e-06 6.18477e-06 0.0
8.03517e-06 5.61869e-06 0.0
9.42358e-06 3.69032e-06 0.0
9.71203e-06 2.75917e-07 0.0
8.01944e-06 -3.54103e-06 0.0
3.90778e-06 -5.38973e-06 0.0
0 0 0.0
0 0 0.0
1.39242e-06 1.76917e-06 0.0
2.40422e-06 2.19279e-06 0.0
2.67828e-06 2.17855e-06 0.0
2.38271e-06 1.83372e-06 0.0
2.29647e-06 1.01775e-06 0.0
3.34128e-06 1.89298e-07 0.0
3.3413e-06 2.45389e-07 0.0
3.42547e-06 3.17933e-06 0.0
6.47084e-06 6.66488e-06 0.0
1.01524e-05 8.35368e-06 0.0
1.34198e-05 9.14099e-06 0.0
1.60668e-05 9.40937e-06 0.0
1.81315e-05 9.3604e-06 0.0
1.97074e-05 9.11121e-06 0.0
2.08884e-05 8.73743e-06 0.0
2.17547e-05 8.29082e-06 0.0
2.23718e-05 7.80749e-06 0.0
2.27916e-05 7.31247e-06 0.0
2.30552e-05 6.82278e-06 0.0
2.31949e-05 6.3495e-06 0.0
2.32362e-05 5.8995e-06 0.0
2.3199e-05 5.47659e-06 0.0
2.30991e-05 5.08252e-06 0.0
2.2949e-05 4.71762e-06 0.0
2.27585e-05 4.38128e-06 0.0
2.25356e-05 4.07236e-06 0.0
2.22863e-05 3.78939e-06 0.0
2.20157e-05 3.53077e-06 0.0
2.17277e-05 3.29484e-06 0.0
2.14256e-05 3.08003e-06 0.0
2.11119e-05 2.88481e-06 0.0
2.07887e-05 2.70782e-06 0.0
2.03363e-05 2.86328e-06 0.0
2.00359e-05 2.72608e-06 0.0
1.97285e-05 2.60268e-06 0.0
1.94153e-05 2.49257e-06 0.0
1.90973e-05 2.39537e-06 0.0
1.87751e-05 2.31087e-06 0.0
1.84492e-05 2.23903e-06 0.0
1.81192e-05 2.17999e-06 0.0
1.77845e-05 2.13404e-06 0.0
1.74435e-05 2.10166e-06 0.0
1.70935e-05 2.08343e-06 0.0
1.67304e-05 2.07993e-06 0.0
1.63479e-05 2.09159e-06 0.0
1.59368e-05 2.11833e-06 0.0
1.54842e-05 2.15898e-06 0.0
1.4972e-05 2.21035e-06 0.0
1.43757e-05 2.2656e-06 0.0
1.36633e-05 2.31178e-06 0.0
1.27937e-05 2.32597e-06 0.0
1.17184e-05 2.26966e-06 0.0
1.0387e-05 2.08141e-06 0.0
8.76531e-06 1.67039e-06 0.0
6.88378e-06 9.23355e-07 0.0
4.95756e-06 -2.1602e-07 0.0
3.59838e-06 -1.33047e-06 0.0
3.05559e-06 -5.16533e-07 0.0
3.379e-06 1.36389e-06 0.0
2.77363e-06 5.41778e-06 0.0
2.23707e-07 4.58962e-06 0.0
0 0 0.0
0 0 0.0
0 0 0.0
9.01289e-06 -1.25773e-05 0.0
2.40335e-05 -1.2524e-05 0.0
3.82766e-05 -6.3258e-06 0.0
4.82259e-05 -1.1554e-06 0.0
5.11144e-05 1.04571e-06 0.0
4.99416e-05 -1.03226e-06 0.0
4.83909e-05 -8.83979e-06 0.0
4.59891e-05 -1.8637e-05 0.0
4.27453e-05 -2.14512e-05 0.0
4.02714e-05 -1.86336e-05 0.0
3.78278e-05 -1.33927e-05 0.0
3.51473e-05 -7.84007e-06 0.0
3.24031e-05 -3.21818e-06 0.0
3.02422e-05 -7.461e-08 0.0
2.94869e-05 2.41809e-06 0.0
3.0031e-05 6.24409e-06 0.0
3.02471e-05 1.25203e-05 0.0
2.78228e-05 1.99011e-05 0.0
2.18991e-05 2.42721e-05 0.0
1.32236e-05 2.27101e-05 0.0
3.30562e-06 1.21435e-05 0.0
0 0 0.0
0 0 0.0
9.22799e-06 2.06142e-05 0.0
2.01594e-05 2.6174e-05 0.0
2.93074e-05 2.00786e-05 0.0
3.47132e-05 6.57788e-06 0.0
3.6726e-05 -5.59622e-06 0.0
3.70347e-05 -1.47545e-05 0.0
3.65893e-05 -1.79623e-05 0.0
3.64056e-05 -1.81906e-05 0.0
3.55548e-05 -1.73602e-05 0.0
3.30433e-05 -1.58628e-05 0.0
2.8472e-05 -1.38607e-05 0.0
2.23608e-05 -1.14891e-05 0.0
1.56487e-05 -8.74013e-06 0.0
9.06249e-06 -5.32278e-06 0.0
2.98955e-06 -1.08399e-06 0.0
0 0 0.0
0 0 0.0
4.19334e-06 -1.0093e-05 0.0
5.17123e-06 -1.61156e-05 0.0
1.26834e-06 -1.14075e-05 0.0
0 0 0.0
0 0 0.0
0 0 0.0
0 0 0.0
0 0 0.0
7.6584e-06 -9.20948e-06 0.0
1.70457e-05 -8.2035e-06 0.0
2.49119e-05 -3.97103e-06 0.0
3.06307e-05 1.59496e-06 0.0
3.28964e-05 6.29441e-06 0.0
3.00845e-05 8.20823e-06 0.0
2.14581e-05 5.6631e-06 0.0
8.08315e-06 -6.10944e-07 0.0
0 0 0.0
0 0 0.0
6.26312e-06 8.91508e-06 0.0
1.37793e-05 8.79613e-06 0.0
1.83817e-05 4.25745e-06 0.0
1.98591e-05 -1.3651e-06 0.0
1.8929e-05 -6.37395e-06 0.0
1.65386e-05 -9.40972e-06 0.0
1.35242e-05 -1.04956e-05 0.0
1.00744e-05 -9.93389e-06 0.0
6.07889e-06 -7.71565e-06 0.0
1.73962e-06 -3.34514e-06 0.0
0 0 0.0
0 0 0.0
1.73361e-06 -4.344e-06 0.0
3.33845e-06 -4.54988e-06 0.0
3.10776e-06 -1.44699e-06 0.0
1.73387e-06 5.79103e-07 0.0
0 0 0.0
0 0 0.0
7.29188e-07 1.67863e-06 0.0
2.99775e-06 3.51734e-06 0.0
5.24448e-06 4.19088e-06 0.0
7.18478e-06 3.94524e-06 0.0
8.42517e-06 2.87921e-06 0.0
8.22497e-06 1.27542e-06 0.0
5.83299e-06 -1.56315e-07 0.0
1.61246e-06 -5.8524e-07 0.0
0 0 0.0
0 0 0.0
4.31778e-07 5.18567e-07 0.0
1.5014e-06 1.41407e-06 0.0
2.02929e-06 2.13785e-06 0.0
1.72638e-06 2.30889e-06 0.0
7.49591e-07 1.13123e-06 0.0
0 0 0.0
0 0 0.0
1.54605e-06 1.4801e-06 0.0
4.66263e-06 3.10571e-06 0.0
8.1727e-06 4.8445e-06 0.0
1.13455e-05 6.15692e-06 0.0
1.39963e-05 7.00989e-06 0.0
1.61339e-05 7.4809e-06 0.0
1.78247e-05 7.6635e-06 0.0
1.91436e-05 7.63944e-06 0.0
2.01579e-05 7.47357e-06 0.0
2.09245e-05 7.21507e-06 0.0
2.14896e-05 6.90018e-06 0.0
2.1891e-05 6.55502e-06 0.0
2.21591e-05 6.19796e-06 0.0
2.23184e-05 5.84161e-06 0.0
2.23888e-05 5.49436e-06 0.0
2.23866e-05 5.16157e-06 0.0
2.23246e-05 4.84642e-06 0.0
2.22137e-05 4.55059e-06 0.0
2.20624e-05 4.27472e-06 0.0
2.18779e-05 4.01879e-06 0.0
2.1666e-05 3.78231e-06 0.0
2.14315e-05 3.56458e-06 0.0
2.11782e-05 3.36471e-06 0.0
2.09095e-05 3.18179e-06 0.0
2.06281e-05 3.01493e-06 0.0
2.0225e-05 3.14062e-06 0.0
1.99618e-05 3.0118e-06 0.0
1.96907e-05 2.89511e-06 0.0
1.94134e-05 2.79029e-06 0.0
1.91316e-05 2.69727e-06 0.0
1.88466e-05 2.61611e-06 0.0
1.85593e-05 2.54712e-06 0.0
1.82706e-05 2.49091e-06 0.0
1.79806e-05 2.44837e-06 0.0
1.76892e-05 2.42084e-06 0.0
1.73949e-05 2.41009e-06 0.0
1.70953e-05 2.41839e-06 0.0
1.6786e-05 2.44854e-06 0.0
1.64601e-05 2.50374e-06 0.0
1.61068e-05 2.58736e-06 0.0
1.57098e-05 2.70232e-06 0.0
1.52457e-05 2.84992e-06 0.0
1.46806e-05 3.02768e-06 0.0
1.39663e-05 3.2255e-06 0.0
1.3036e-05 3.41912e-06 0.0
1.17982e-05 3.55899e-06 0.0
1.01325e-05 3.55177e-06 0.0
7.89469e-06 3.23142e-06 0.0
4.96965e-06 2.32271e-06 0.0
1.59528e-06 5.54798e-07 0.0
0 0 0.0
0 0 0.0
1.86422e-06 6.15779e-06 0.0
2.44746e-06 6.33253e-06 0.0
0 0 0.0
0 0 0.0
1.20119e-05 -1.11724e-05 0.0
2.64493e-05 -2.54664e-05 0.0
3.60975e-05 -2.55674e-05 0.0
4.65836e-05 -1.85269e-05 0.0
5.40752e-05 -6.77083e-06 0.0
5.52263e-05 1.62296e-06 0.0
5.22183e-05 2.0781e-06 0.0
4.90561e-05 -6.56312e-06 0.0
4.69972e-05 -1.55071e-05 0.0
4.45002e-05 -1.84919e-05 0.0
4.1265e-05 -1.54464e-05 0.0
3.72146e-05 -9.8828e-06 0.0
3.28683e-05 -4.15131e-06 0.0
2.83511e-05 3.77048e-07 0.0
2.43306e-05 2.2471e-06 0.0
2.26979e-05 2.30292e-06 0.0
2.42575e-05 4.49602e-06 0.0
2.71677e-05 1.18646e-05 0.0
2.72565e-05 2.33523e-05 0.0
2.33517e-05 3.08682e-05 0.0
1.71638e-05 3.16375e-05 0.0
8.76656e-06 2.22554e-05 0.0
0 0 0.0
0 0 0.0
4.99826e-06 8.16529e-06 0.0
1.75545e-05 1.43194e-05 0.0
2.8653e-05 1.10173e-05 0.0
3.62233e-05 2.0212e-06 0.0
4.00973e-05 -7.41214e-06 0.0
4.10817e-05 -1.43126e-05 0.0
4.00877e-05 -1.69686e-05 0.0
3.81939e-05 -1.68849e-05 0.0
3.58545e-05 -1.52086e-05 0.0
3.25133e-05 -1.19644e-05 0.0
2.76474e-05 -8.31881e-06 0.0
2.18471e-05 -5.18141e-06 0.0
1.62822e-05 -2.73343e-06 0.0
1.19458e-05 -2.47408e-07 0.0
9.66062e-06 2.28317e-06 0.0
9.83218e-06 8.32797e-07 0.0
1.18035e-05 -3.4254e-06 0.0
1.25623e-05 -1.12698e-05 0.0
9.87811e-06 -1.316e-05 0.0
6.4951e-06 -7.80524e-06 0.0
7.65665e-06 -1.57759e-06 0.0
1.09582e-05 -1.64331e-06 0.0
1.61021e-05 -2.27925e-06 0.0
2.09833e-05 -1.56401e-06 0.0
2.4248e-05 -4.47921e-06 0.0
2.21036e-05 -1.29234e-05 0.0
2.19133e-05 -1.37869e-05 0.0
2.55247e-05 -9.5544e-06 0.0
2.88726e-05 -1.78905e-06 0.0
3.0254e-05 6.51968e-06 0.0
2.76302e-05 1.41545e-05 0.0
2.02039e-05 1.67281e-05 0.0
9.00611e-06 1.38207e-05 0.0
0 0 0.0
0 0 0.0
4.92394e-06 -1.73536e-07 0.0
1.26982e-05 1.9303e-06 0.0
1.77667e-05 8.5658e-07 0.0
1.97705e-05 -1.84942e-06 0.0
1.93033e-05 -4.73981e-06 0.0
1.72252e-05 -6.68177e-06 0.0
1.43095e-05 -7.23328e-06 0.0
1.10164e-05 -6.31299e-06 0.0
7.72352e-06 -3.95936e-06 0.0
5.2587e-06 -5.58154e-07 0.0
4.63108e-06 3.83893e-07 0.0
4.77755e-06 -1.13482e-06 0.0
3.98369e-06 -4.2807e-06 0.0
1.77587e-06 -4.07114e-06 0.0
0 0 0.0
0 0 0.0
1.21485e-06 1.01988e-06 0.0
1.01983e-06 -8.9079e-08 0.0
1.63553e-06 2.20095e-07 0.0
3.15315e-06 1.39926e-06 0.0
5.07847e-06 2.12132e-06 0.0
6.90984e-06 2.26883e-06 0.0
8.24915e-06 2.12621e-06 0.0
8.53152e-06 2.223e-06 0.0
7.06515e-06 3.04915e-06 0.0
3.50391e-06 3.79825e-06 0.0
0 0 0.0
0 0 0.0
1.84782e-06 -1.12562e-06 0.0
3.56964e-06 2.86234e-07 0.0
4.38574e-06 1.92206e-06 0.0
4.1547e-06 3.17411e-06 0.0
2.43837e-06 3.2538e-06 0.0
0 0 0.0
0 0 0.0
2.55161e-06 -1.81685e-06 0.0
5.8001e-06 -2.29076e-07 0.0
8.61984e-06 1.75352e-06 0.0
1.11277e-05 3.4829e-06 0.0
1.33079e-05 4.78017e-06 0.0
1.51592e-05 5.66176e-06 0.0
1.67019e-05 6.20163e-06 0.0
1.7967e-05 6.48018e-06 0.0
1.89892e-05 6.56747e-06 0.0
1.98017e-05 6.51959e-06 0.0
2.04351e-05 6.37948e-06 0.0
2.09164e-05 6.1792e-06 0.0
2.12689e-05 5.9422e-06 0.0
2.15128e-05 5.68537e-06 0.0
2.16653e-05 5.42063e-06 0.0
2.1741e-05 5.15629e-06 0.0
2.17522e-05 4.89796e-06 0.0
2.17093e-05 4.64932e-06 0.0
2.16209e-05 4.41268e-06 0.0
2.14945e-05 4.18936e-06 0.0
2.13363e-05 3.98e-06 0.0
2.11514e-05 3.78477e-06 0.0
2.09443e-05 3.60357e-06 0.0
2.07188e-05 3.43608e-06 0.0
2.04781e-05 3.28191e-06 0.0
2.0126e-05 3.38067e-06 0.0
1.9899e-05 3.26121e-06 0.0
1.96634e-05 3.15168e-06 0.0
1.94218e-05 3.05207e-06 0.0
1.91761e-05 2.96247e-06 0.0
1.89285e-05 2.88318e-06 0.0
1.86808e-05 2.81471e-06 0.0
1.84347e-05 2.75794e-06 0.0
1.81918e-05 2.71418e-06 0.0
1.79532e-05 2.68531e-06 0.0
1.77198e-05 2.67394e-06 0.0
1.74916e-05 2.6836e-06 0.0
1.72673e-05 2.71893e-06 0.0
1.70442e-05 2.78588e-06 0.0
1.68166e-05 2.89182e-06 0.0
1.65746e-05 3.04551e-06 0.0
1.63022e-05 3.2567e-06 0.0
1.59738e-05 3.53497e-06 0.0
1.55504e-05 3.88747e-06 0.0
1.49722e-05 4.31451e-06 0.0
1.41487e-05 4.80169e-06 0.0
1.29418e-05 5.306e-06 0.0
1.11353e-05 5.72789e-06 0.0
8.38453e-06 5.85138e-06 0.0
4.15034e-06 5.01943e-06 0.0
0 0 0.0
0 0 0.0
4.38214e-06 1.34742e-06 0.0
1.15145e-05 3.64633e-06 0.0
1.74884e-05 -9.21573e-08 0.0
2.5481e-05 -8.54765e-06 0.0
3.32254e-05 -2.42528e-05 0.0
3.70699e-05 -3.14864e-05 0.0
3.74869e-05 -3.08146e-05 0.0
3.80826e-05 -2.53692e-05 0.0
3.73908e-05 -7.89671e-06 0.0
3.49896e-05 3.58266e-06 0.0
3.39901e-05 5.15213e-06 0.0
3.63862e-05 -6.66589e-06 0.0
3.82207e-05 -1.47131e-05 0.0
3.80553e-05 -1.65337e-05 0.0
3.51619e-05 -1.14136e-05 0.0
3.05149e-05 -5.30699e-06 0.0
2.61107e-05 4.06532e-07 0.0
2.13279e-05 5.52565e-06 0.0
1.56778e-05 6.6632e-06 0.0
1.13359e-05 2.92889e-06 0.0
1.23113e-05 8.84601e-07 0.0
1.83439e-05 7.15631e-06 0.0
2.29427e-05 2.40774e-05 0.0
2.36186e-05 3.34423e-05 0.0
2.41959e-05 3.49922e-05 0.0
2.49247e-05 2.71177e-05 0.0
2.08069e-05 7.98631e-06 0.0
1.47141e-05 1.87667e-07 0.0
1.44919e-05 6.39219e-07 0.0
2.03968e-05 4.09743e-06 0.0
2.80503e-05 2.35615e-06 0.0
3.4262e-05 -3.45421e-06 0.0
3.80598e-05 -9.96526e-06 0.0
3.93584e-05 -1.42326e-05 0.0
3.79596e-05 -1.48616e-05 0.0
3.4606e-05 -1.40341e-05 0.0
3.13394e-05 -1.23726e-05 0.0
2.78672e-05 -7.79986e-06 0.0
2.33395e-05 -3.08088e-06 0.0
1.86286e-05 6.19922e-08 0.0
1.51472e-05 1.08647e-06 0.0
1.37874e-05 1.62145e-06 0.0
1.45851e-05 1.54329e-06 0.0
1.66487e-05 -8.77806e-07 0.0
1.84378e-05 -5.05283e-06 0.0
1.82246e-05 -9.49083e-06 0.0
1.60391e-05 -1.00754e-05 0.0
1.45389e-05 -7.11056e-06 0.0
1.53784e-05 -4.54562e-06 0.0
1.81313e-05 -6.01954e-06 0.0
2.24521e-05 -9.55242e-06 0.0
2.59073e-05 -4.51311e-06 0.0
2.26437e-05 -5.7697e-07 0.0
1.78303e-05 -8.51157e-06 0.0
1.83474e-05 -1.55545e-05 0.0
1.90345e-05 -1.17835e-05 0.0
1.83942e-05 -3.12167e-06 0.0
2.0089e-05 5.14898e-06 0.0
2.2161e-05 1.71711e-05 0.0
2.26001e-05 2.13696e-05 0.0
2.32627e-05 1.98723e-05 0.0
2.0469e-05 6.45664e-06 0.0
1.63915e-05 -1.28031e-06 0.0
1.56589e-05 -4.69444e-06 0.0
1.74255e-05 -2.71867e-06 0.0
1.95577e-05 -1.77409e-06 0.0
2.03509e-05 -2.22568e-06 0.0
1.96227e-05 -3.36446e-06 0.0
1.78018e-05 -4.27839e-06 0.0
1.54019e-05 -4.35527e-06 0.0
1.28514e-05 -3.3705e-06 0.0
1.06091e-05 -1.5012e-06 0.0
9.2867e-06 3.85559e-07 0.0
8.66514e-06 7.09486e-07 0.0
7.74508e-06 -3.10157e-07 0.0
5.34553e-06 -1.48512e-06 0.0
1.43054e-06 -9.77015e-07 0.0
0 0 0.0
0 0 0.0
5.63909e-07 -1.81723e-07 0.0
2.04674e-06 -7.68431e-07 0.0
3.08859e-06 -7.79073e-07 0.0
4.21977e-06 -1.59128e-07 0.0
5.6142e-06 3.92115e-07 0.0
7.13148e-06 6.42457e-07 0.0
8.68733e-06 8.79858e-07 0.0
1.01723e-05 1.79656e-06 0.0
1.12606e-05 3.94223e-06 0.0
1.17909e-05 6.0662e-06 0.0
1.10416e-05 2.6621e-06 0.0
9.16866e-06 -6.57407e-07 0.0
8.32927e-06 -2.3007e-06 0.0
8.68526e-06 -7.04573e-07 0.0
9.45212e-06 1.39519e-06 0.0
1.00654e-05 3.42864e-06 0.0
1.04164e-05 4.61919e-06 0.0
1.03997e-05 1.76225e-06 0.0
1.00137e-05 -1.37239e-06 0.0
9.74937e-06 -3.67146e-06 0.0
1.00993e-05 -2.16049e-06 0.0
1.109e-05 -1.93334e-07 0.0
1.23587e-05 1.62351e-06 0.0
1.37093e-05 3.08574e-06 0.0
1.50217e-05 4.17015e-06 0.0
1.6229e-05 4.92209e-06 0.0
1.72988e-05 5.40536e-06 0.0
1.82201e-05 5.68166e-06 0.0
1.89946e-05 5.80357e-06 0.0
1.96306e-05 5.81333e-06 0.0
2.01403e-05 5.74372e-06 0.0
2.05367e-05 5.61968e-06 0.0
2.08332e-05 5.45985e-06 0.0
2.10424e-05 5.27805e-06 0.0
2.11759e-05 5.08434e-06 0.0
2.12442e-05 4.886e-06 0.0
2.12565e-05 4.68821e-06 0.0
2.12211e-05 4.49458e-06 0.0
2.11449e-05 4.30755e-06 0.0
2.10341e-05 4.12875e-06 0.0
2.0894e-05 3.95918e-06 0.0
2.07294e-05 3.7994e-06 0.0
2.05442e-05 3.6497e-06 0.0
2.0342e-05 3.51013e-06 0.0
2.00411e-05 3.58518e-06 0.0
1.98482e-05 3.47566e-06 0.0
1.96467e-05 3.37342e-06 0.0
1.94392e-05 3.27862e-06 0.0
1.92286e-05 3.19144e-06 0.0
1.90174e-05 3.11224e-06 0.0
1.88084e-05 3.04161e-06 0.0
1.86043e-05 2.98044e-06 0.0
1.8408e-05 2.93013e-06 0.0
1.82225e-05 2.89269e-06 0.0
1.80509e-05 2.87099e-06 0.0
1.78963e-05 2.86904e-06 0.0
1.77616e-05 2.89233e-06 0.0
1.76495e-05 2.94825e-06 0.0
1.75617e-05 3.04652e-06 0.0
1.74984e-05 3.19962e-06 0.0
1.74569e-05 3.42307e-06 0.0
1.74299e-05 3.73519e-06 0.0
1.74033e-05 4.15603e-06 0.0
1.73537e-05 4.70442e-06 0.0
1.72467e-05 5.3916e-06 0.0
1.70412e-05 6.2077e-06 0.0
1.67108e-05 7.09037e-06 0.0
1.63187e-05 7.82084e-06 0.0
1.62307e-05 7.75666e-06 0.0
1.63925e-05 2.53629e-06 0.0
1.6732e-05 -2.36033e-06 0.0
1.87842e-05 -4.86459e-06 0.0
2.43448e-05 -3.63324e-06 0.0
3.12496e-05 -7.43333e-06 0.0
3.74446e-05 -1.60057e-05 0.0
3.99805e-05 -2.63316e-05 0.0
3.70723e-05 -2.91802e-05 0.0
2.76736e-05 -2.38314e-05 0.0
1.23342e-05 -1.71082e-05 0.0
0 0 0.0
0 0 0.0
8.94508e-06 -3.06807e-06 0.0
2.06985e-05 -1.25348e-05 0.0
2.51527e-05 -1.60004e-05 0.0
2.44298e-05 -1.56416e-05 0.0
2.03923e-05 -6.03988e-06 0.0
1.43839e-05 -1.15879e-06 0.0
1.40703e-05 2.73066e-06 0.0
1.24708e-05 1.04771e-05 0.0
7.81135e-06 1.23388e-05 0.0
2.23417e-06 7.18659e-06 0.0
0 0 0.0
0 0 0.0
8.69091e-06 1.76735e-05 0.0
1.8441e-05 2.90689e-05 0.0
2.48771e-05 3.16701e-05 0.0
2.90497e-05 2.55002e-05 0.0
2.9056e-05 1.29176e-05 0.0
2.5716e-05 3.89515e-06 0.0
2.34087e-05 9.42917e-08 0.0
2.41726e-05 -7.58577e-07 0.0
2.72256e-05 -2.98913e-06 0.0
3.02831e-05 -7.37926e-06 0.0
3.22941e-05 -1.20963e-05 0.0
3.30608e-05 -1.41646e-05 0.0
3.07142e-05 -1.13305e-05 0.0
2.51057e-05 -9.1136e-06 0.0
1.97173e-05 -9.29124e-06 0.0
1.6161e-05 -3.82681e-06 0.0
1.2988e-05 7.58555e-07 0.0
1.13178e-05 3.04932e-06 0.0
1.15357e-05 1.78054e-06 0.0
1.32007e-05 6.03804e-07 0.0
1.57913e-05 -8.27735e-07 0.0
1.85783e-05 -3.24235e-06 0.0
2.05249e-05 -6.18554e-06 0.0
2.08087e-05 -8.37813e-06 0.0
1.96013e-05 -8.1723e-06 0.0
1.80343e-05 -6.21784e-06 0.0
1.65781e-05 -4.7534e-06 0.0
1.38535e-05 -5.62138e-06 0.0
7.36949e-06 -7.59782e-06 0.0
0 0 0.0
0 0 0.0
4.08307e-06 -1.23464e-05 0.0
1.04923e-05 -1.768e-05 0.0
6.64535e-06 -6.70734e-06 0.0
0 0 0.0
0 0 0.0
7.90288e-06 1.09626e-05 0.0
1.88262e-05 1.58515e-05 0.0
2.55455e-05 1.72524e-05 0.0
2.68409e-05 9.45333e-06 0.0
2.50948e-05 1.23803e-06 0.0
2.30487e-05 -3.45007e-06 0.0
2.19273e-05 -3.50772e-06 0.0
2.15912e-05 -2.31245e-06 0.0
2.0921e-05 -1.72165e-06 0.0
1.96937e-05 -1.95455e-06 0.0
1.81258e-05 -2.33529e-06 0.0
1.64115e-05 -2.20269e-06 0.0
1.4704e-05 -1.31341e-06 0.0
1.32037e-05 6.43681e-08 0.0
1.20886e-05 1.22892e-06 0.0
1.12267e-05 1.46016e-06 0.0
1.02199e-05 1.15996e-06 0.0
8.45684e-06 1.74177e-06 0.0
4.62692e-06 3.95437e-06 0.0
0 0 0.0
0 0 0.0
2.53648e-06 -2.42923e-06 0.0
4.28177e-06 -2.12171e-06 0.0
5.19661e-06 -1.68993e-06 0.0
5.86612e-06 -1.14685e-06 0.0
6.54827e-06 -7.33954e-07 0.0
7.35054e-06 -6.46643e-07 0.0
8.51215e-06 -7.39711e-07 0.0
1.04931e-05 -2.36649e-07 0.0
1.31044e-05 2.07293e-06 0.0
1.54938e-05 4.6387e-06 0.0
1.58264e-05 4.18733e-06 0.0
1.45177e-05 8.88301e-07 0.0
1.36929e-05 -1.59595e-06 0.0
1.38618e-05 -1.36365e-06 0.0
1.49515e-05 3.77574e-07 0.0
1.63489e-05 2.43138e-06 0.0
1.78304e-05 3.44081e-06 0.0
1.85324e-05 1.9215e-06 0.0
1.78574e-05 -5.47598e-07 0.0
1.62108e-05 -2.33408e-06 0.0
1.46863e-05 -1.95872e-06 0.0
1.40936e-05 -6.41789e-07 0.0
1.41752e-05 8.07016e-07 0.0
1.46736e-05 2.10033e-06 0.0
1.53943e-05 3.14625e-06 0.0
1.62033e-05 3.93935e-06 0.0
1.70146e-05 4.50843e-06 0.0
1.77765e-05 4.89223e-06 0.0
1.84606e-05 5.12893e-06 0.0
1.9054e-05 5.25206e-06 0.0
1.95533e-05 5.28948e-06 0.0
1.99609e-05 5.26358e-06 0.0
2.02825e-05 5.19199e-06 0.0
2.05255e-05 5.08841e-06 0.0
2.0698e-05 4.96335e-06 0.0
2.08079e-05 4.82478e-06 0.0
2.08628e-05 4.67871e-06 0.0
2.08698e-05 4.52959e-06 0.0
2.08353e-05 4.38072e-06 0.0
2.07651e-05 4.23444e-06 0.0
2.06643e-05 4.09245e-06 0.0
2.05375e-05 3.95589e-06 0.0
2.0389e-05 3.82553e-06 0.0
2.02224e-05 3.70186e-06 0.0
1.99715e-05 3.75667e-06 0.0
1.98101e-05 3.65731e-06 0.0
1.96401e-05 3.56226e-06 0.0
1.94646e-05 3.4717e-06 0.0
1.92867e-05 3.38585e-06 0.0
1.91096e-05 3.30498e-06 0.0
1.89367e-05 3.22952e-06 0.0
1.87719e-05 3.16016e-06 0.0
1.86191e-05 3.09798e-06 0.0
1.84831e-05 3.04463e-06 0.0
1.83692e-05 3.00256e-06 0.0
1.82838e-05 2.9753e-06 0.0
1.8234e-05 2.96789e-06 0.0
1.82285e-05 2.98732e-06 0.0
1.82773e-05 3.04318e-06 0.0
1.83919e-05 3.14821e-06 0.0
1.85856e-05 3.31888e-06 0.0
1.88735e-05 3.57537e-06 0.0
1.92729e-05 3.94033e-06 0.0
1.9805e-05 4.43464e-06 0.0
2.05002e-05 5.06637e-06 0.0
2.14118e-05 5.80481e-06 0.0
2.26477e-05 6.51837e-06 0.0
2.44189e-05 6.83201e-06 0.0
2.70349e-05 5.67327e-06 0.0
2.94908e-05 1.47205e-06 0.0
3.08752e-05 -3.35497e-06 0.0
3.18107e-05 -6.7864e-06 0.0
3.36294e-05 -8.41055e-06 0.0
3.61698e-05 -1.21013e-05 0.0
3.72499e-05 -1.85316e-05 0.0
3.527e-05 -2.41631e-05 0.0
2.8678e-05 -2.20886e-05 0.0
1.70584e-05 -9.137e-06 0.0
4.57096e-06 -2.00719e-06 0.0
0 0 0.0
0 0 0.0
7.57932e-06 -1.61767e-05 0.0
1.53367e-05 -1.94149e-05 0.0
1.51005e-05 -1.42449e-05 0.0
7.2044e-06 -9.5372e-06 0.0
0 0 0.0
0 0 0.0
0 0 0.0
3.38029e-06 1.12203e-05 0.0
3.74485e-06 1.55014e-05 0.0
2.4252e-06 1.09422e-05 0.0
0 0 0.0
0 0 0.0
3.98403e-06 5.86445e-06 0.0
1.41554e-05 2.06722e-05 0.0
2.13501e-05 2.55834e-05 0.0
2.70727e-05 2.19252e-05 0.0
2.944e-05 1.38888e-05 0.0
2.85806e-05 6.47406e-06 0.0
2.66824e-05 1.57292e-06 0.0
2.54679e-05 -1.43893e-06 0.0
2.50994e-05 -4.48283e-06 0.0
2.46381e-05 -8.30959e-06 0.0
2.33844e-05 -1.21202e-05 0.0
2.15491e-05 -1.35443e-05 0.0
1.75845e-05 -5.75162e-06 0.0
1.05083e-05 -1.97627e-06 0.0
4.2679e-06 -3.6325e-06 0.0
0 0 0.0
0 0 0.0
3.08991e-06 8.88549e-07 0.0
7.52137e-06 -9.64446e-07 0.0
1.14178e-05 -2.46488e-06 0.0
1.49545e-05 -3.99582e-06 0.0
1.79357e-05 -5.83346e-06 0.0
1.99677e-05 -7.53965e-06 0.0
2.07105e-05 -8.11364e-06 0.0
2.00096e-05 -6.72845e-06 0.0
1.82822e-05 -4.40916e-06 0.0
1.58469e-05 -2.16426e-06 0.0
1.17463e-05 -2.52229e-07 0.0
4.74616e-06 1.91824e-06 0.0
0 0 0.0
0 0 0.0
5.20799e-06 -1.88133e-05 0.0
4.64043e-06 -1.79198e-05 0.0
0 0 0.0
0 0 0.0
0 0 0.0
4.70146e-06 -7.10488e-08 0.0
1.25399e-05 6.08239e-06 0.0
1.91059e-05 1.33641e-05 0.0
2.22454e-05 8.85768e-06 0.0
2.33752e-05 2.20287e-06 0.0
2.33076e-05 -2.22301e-06 0.0
2.27183e-05 -2.69844e-06 0.0
2.16533e-05 -1.37289e-06 0.0
2.01868e-05 -4.11976e-07 0.0
1.8804e-05 -6.01622e-07 0.0
1.78228e-05 -1.05129e-06 0.0
1.70622e-05 -9.40522e-07 0.0
1.62699e-05 -6.0342e-08 0.0
1.53238e-05 1.2336e-06 0.0
1.42168e-05 2.25527e-06 0.0
1.30562e-05 2.38695e-06 0.0
1.23457e-05 1.76393e-06 0.0
1.32965e-05 1.91588e-06 0.0
1.6193e-05 5.24561e-06 0.0
1.78621e-05 3.42929e-06 0.0
1.43751e-05 -1.22304e-07 0.0
1.03921e-05 -2.45962e-06 0.0
8.7855e-06 -2.30299e-06 0.0
8.33741e-06 -1.93397e-06 0.0
8.15143e-06 -1.37692e-06 0.0
7.88699e-06 -9.32227e-07 0.0
7.4656e-06 -9.22413e-07 0.0
7.08135e-06 -1.5078e-06 0.0
7.40582e-06 -2.31328e-06 0.0
8.86123e-06 -5.06565e-07 0.0
1.10942e-05 2.60143e-06 0.0
1.23863e-05 4.73852e-06 0.0
1.36546e-05 8.15678e-07 0.0
1.53374e-05 -2.15021e-06 0.0
1.71472e-05 -2.64109e-06 0.0
1.91148e-05 -1.2703e-06 0.0
2.09884e-05 8.01455e-07 0.0
2.23682e-05 2.2408e-06 0.0
2.26882e-05 2.09584e-06 0.0
2.16793e-05 8.88729e-07 0.0
1.97623e-05 -2.86876e-07 0.0
1.77962e-05 -5.09828e-07 0.0
1.64438e-05 5.30803e-09 0.0
1.57911e-05 8.50129e-07 0.0
1.5682e-05 1.75112e-06 0.0
1.59353e-05 2.5752e-06 0.0
1.64009e-05 3.26832e-06 0.0
1.69688e-05 3.81832e-06 0.0
1.75645e-05 4.23343e-06 0.0
1.81406e-05 4.53041e-06 0.0
1.86688e-05 4.72845e-06 0.0
1.9134e-05 4.84611e-06 0.0
1.95299e-05 4.89999e-06 0.0
1.98557e-05 4.90432e-06 0.0
2.01139e-05 4.87095e-06 0.0
2.03089e-05 4.80955e-06 0.0
2.04463e-05 4.72788e-06 0.0
2.05318e-05 4.63213e-06 0.0
2.05711e-05 4.52711e-06 0.0
2.05698e-05 4.4166e-06 0.0
2.0533e-05 4.30345e-06 0.0
2.04655e-05 4.18984e-06 0.0
2.03717e-05 4.07735e-06 0.0
2.02557e-05 3.96716e-06 0.0
2.01211e-05 3.86008e-06 0.0
1.99179e-05 3.89826e-06 0.0
1.97847e-05 3.80903e-06 0.0
1.96432e-05 3.7209e-06 0.0
1.94965e-05 3.63405e-06 0.0
1.93481e-05 3.54856e-06 0.0
1.92016e-05 3.46449e-06 0.0
1.90609e-05 3.38196e-06 0.0
1.89304e-05 3.30119e-06 0.0
1.88154e-05 3.22261e-06 0.0
1.87218e-05 3.14703e-06 0.0
1.86568e-05 3.07579e-06 0.0
1.86293e-05 3.011e-06 0.0
1.86503e-05 2.9559e-06 0.0
1.87335e-05 2.91521e-06 0.0
1.88961e-05 2.89572e-06 0.0
1.916e-05 2.90673e-06 0.0
1.95526e-05 2.96054e-06 0.0
2.01086e-05 3.07217e-06 0.0
2.08716e-05 3.2576e-06 0.0
2.18961e-05 3.52797e-06 0.0
2.32502e-05 3.87517e-06 0.0
2.50177e-05 4.23979e-06 0.0
2.72932e-05 4.44737e-06 0.0
3.0139e-05 4.09634e-06 0.0
3.33557e-05 2.53699e-06 0.0
3.61371e-05 -6.65709e-07 0.0
3.77417e-05 -4.35993e-06 0.0
3.81998e-05 -7.2704e-06 0.0
3.78006e-05 -9.11763e-06 0.0
3.58194e-05 -1.14503e-05 0.0
3.07728e-05 -1.51296e-05 0.0
2.27446e-05 -1.7649e-05 0.0
1.00259e-05 -8.93015e-06 0.0
0 0 0.0
0 0 0.0
2.83063e-06 -6.09222e-07 0.0
1.01693e-05 -7.01741e-06 0.0
1.57771e-05 -2.14339e-05 0.0
1.61074e-05 -2.11921e-05 0.0
1.09191e-05 -6.97938e-06 0.0
3.2782e-06 -6.07301e-07 0.0
0 0 0.0
0 0 0.0
0 0 0.0
5.7483e-07 8.56387e-06 0.0
3.4905e-06 1.44263e-05 0.0
4.85571e-06 1.16965e-05 0.0
1.81085e-06 2.97743e-06 0.0
0 0 0.0
0 0 0.0
5.93419e-06 1.22809e-05 0.0
1.55201e-05 1.76536e-05 0.0
2.3034e-05 1.67425e-05 0.0
2.70314e-05 1.24954e-05 0.0
2.77566e-05 7.55336e-06 0.0
2.65235e-05 3.35935e-06 0.0
2.45264e-05 7.78886e-08 0.0
2.21114e-05 -2.87807e-06 0.0
1.87923e-05 -5.77307e-06 0.0
1.37597e-05 -8.09284e-06 0.0
6.32032e-06 -8.01126e-06 0.0
0 0 0.0
0 0 0.0
6.08565e-07 -6.8281e-07 0.0
0 0 0.0
0 0 0.0
2.82324e-06 -3.82448e-06 0.0
6.68735e-06 -5.16046e-06 0.0
1.03363e-05 -6.17675e-06 0.0
1.35038e-05 -7.13598e-06 0.0
1.58576e-05 -8.13386e-06 0.0
1.73121e-05 -8.86452e-06 0.0
1.79922e-05 -8.27182e-06 0.0
1.72259e-05 -5.30281e-06 0.0
1.53694e-05 -2.43414e-06 0.0
1.37746e-05 1.38576e-07 0.0
1.25769e-05 3.20859e-06 0.0
1.17963e-05 5.84031e-06 0.0
1.21068e-05 1.43961e-06 0.0
1.5324e-05 -5.27718e-06 0.0
1.28102e-05 -1.5162e-05 0.0
2.23708e-06 -1.12747e-05 0.0
0 0 0.0
0 0 0.0
1.86661e-06 -2.96367e-06 0.0
0 0 0.0
0 0 0.0
5.71658e-06 6.97156e-06 0.0
1.24078e-05 5.12856e-06 0.0
1.61068e-05 5.67431e-07 0.0
1.83578e-05 -2.98599e-06 0.0
1.92945e-05 -2.23842e-06 0.0
1.84831e-05 9.88167e-09 0.0
1.70311e-05 1.12518e-06 0.0
1.63136e-05 9.65259e-08 0.0
1.67267e-05 -9.16795e-07 0.0
1.73945e-05 -8.25457e-07 0.0
1.77141e-05 3.7466e-07 0.0
1.73401e-05 2.15112e-06 0.0
1.61026e-05 3.6658e-06 0.0
1.40613e-05 4.0041e-06 0.0
1.18417e-05 2.49062e-06 0.0
1.13865e-05 -6.32596e-07 0.0
1.47673e-05 -5.80509e-08 0.0
1.81576e-05 3.50099e-06 0.0
1.64251e-05 5.39681e-06 0.0
1.34611e-05 7.25692e-07 0.0
1.20788e-05 -1.33564e-06 0.0
1.1569e-05 -1.51922e-06 0.0
1.10136e-05 -8.73397e-07 0.0
1.00077e-05 -7.03995e-08 0.0
8.3263e-06 3.86156e-07 0.0
5.79714e-06 1.07946e-07 0.0
2.41707e-06 -9.93377e-07 0.0
0 0 0.0
0 0 0.0
4.13339e-06 8.81397e-07 0.0
1.04581e-05 -2.85102e-06 0.0
1.51441e-05 -5.08616e-06 0.0
1.86423e-05 -5.20692e-06 0.0
2.1444e-05 -3.53401e-06 0.0
2.35037e-05 -8.62342e-07 0.0
2.45194e-05 1.5444e-06 0.0
2.42735e-05 2.71731e-06 0.0
2.29202e-05 2.55746e-06 0.0
2.09917e-05 1.8033e-06 0.0
1.909e-05 1.24461e-06 0.0
1.76413e-05 1.12219e-06 0.0
1.67639e-05 1.36083e-06 0.0
1.63911e-05 1.8053e-06 0.0
1.63929e-05 2.32702e-06 0.0
1.6642e-05 2.8433e-06 0.0
1.70353e-05 3.30837e-06 0.0
1.74972e-05 3.70137e-06 0.0
1.79751e-05 4.01675e-06 0.0
1.8435e-05 4.25758e-06 0.0
1.88562e-05 4.43125e-06 0.0
1.9227e-05 4.54693e-06 0.0
1.95425e-05 4.61401e-06 0.0
1.98016e-05 4.64136e-06 0.0
2.00059e-05 4.63691e-06 0.0
2.01588e-05 4.60753e-06 0.0
2.02641e-05 4.55902e-06 0.0
2.03264e-05 4.49616e-06 0.0
2.03502e-05 4.42287e-06 0.0
2.03399e-05 4.34228e-06 0.0
2.02997e-05 4.25685e-06 0.0
2.02338e-05 4.16848e-06 0.0
2.01457e-05 4.0786e-06 0.0
2.00393e-05 3.98828e-06 0.0
1.98803e-05 4.01344e-06 0.0
1.97719e-05 3.93414e-06 0.0
1.96553e-05 3.85267e-06 0.0
1.95338e-05 3.7691e-06 0.0
1.9411e-05 3.68331e-06 0.0
1.92906e-05 3.59507e-06 0.0
1.91768e-05 3.50401e-06 0.0
1.90745e-05 3.40971e-06 0.0
1.89893e-05 3.31171e-06 0.0
1.8928e-05 3.2096e-06 0.0
1.8899e-05 3.10312e-06 0.0
1.89126e-05 2.99222e-06 0.0
1.89822e-05 2.87728e-06 0.0
1.91245e-05 2.75929e-06 0.0
1.93615e-05 2.6401e-06 0.0
1.97214e-05 2.52272e-06 0.0
2.02407e-05 2.41144e-06 0.0
2.09663e-05 2.31156e-06 0.0
2.19564e-05 2.22773e-06 0.0
2.3281e-05 2.15947e-06 0.0
2.50166e-05 2.0901e-06 0.0
2.72307e-05 1.96411e-06 0.0
2.99424e-05 1.64877e-06 0.0
3.30378e-05 9.0277e-07 0.0
3.61545e-05 -5.6329e-07 0.0
3.86604e-05 -2.81542e-06 0.0
4.00448e-05 -5.24021e-06 0.0
4.01686e-05 -6.93143e-06 0.0
3.87372e-05 -7.19299e-06 0.0
3.43192e-05 -6.14346e-06 0.0
2.45624e-05 -4.92401e-06 0.0
8.96165e-06 -4.80014e-06 0.0
0 0 0.0
0 0 0.0
0 0 0.0
4.04646e-06 -7.27338e-06 0.0
1.01636e-05 -1.41309e-05 0.0
1.14912e-05 -2.09621e-05 0.0
6.45613e-06 -1.71635e-05 0.0
0 0 0.0
0 0 0.0
2.0166e-06 8.31552e-07 0.0
3.05227e-06 -4.08557e-07 0.0
3.73517e-06 4.51993e-07 0.0
4.00742e-06 6.0596e-06 0.0
6.26897e-06 1.20744e-05 0.0
7.00512e-06 1.24628e-05 0.0
4.16355e-06 7.88369e-06 0.0
0 0 0.0
0 0 0.0
4.45007e-06 2.88557e-06 0.0
1.34378e-05 8.67915e-06 0.0
2.06028e-05 1.07986e-05 0.0
2.46905e-05 1.00371e-05 0.0
2.58644e-05 7.75314e-06 0.0
2.49707e-05 5.06225e-06 0.0
2.2813e-05 2.55329e-06 0.0
1.97239e-05 4.08751e-07 0.0
1.55514e-05 -1.14771e-06 0.0
9.99276e-06 -1.55224e-06 0.0
3.36974e-06 -7.05835e-08 0.0
0 0 0.0
0 0 0.0
2.82943e-06 -2.97632e-06 0.0
6.56642e-06 -5.55029e-07 0.0
7.93506e-06 -1.65213e-06 0.0
7.45808e-06 -5.35007e-06 0.0
7.90633e-06 -7.82907e-06 0.0
1.00795e-05 -9.08395e-06 0.0
1.20986e-05 -9.33979e-06 0.0
1.30284e-05 -9.29563e-06 0.0
1.2818e-05 -9.17965e-06 0.0
1.20228e-05 -8.1869e-06 0.0
1.01516e-05 -3.00858e-06 0.0
7.27934e-06 -5.7843e-07 0.0
6.83137e-06 3.03847e-07 0.0
8.79989e-06 2.387e-06 0.0
1.07019e-05 4.85454e-06 0.0
1.29809e-05 -7.20756e-07 0.0
1.46251e-05 -7.48192e-06 0.0
1.10243e-05 -5.51132e-06 0.0
2.04123e-06 -2.74439e-06 0.0
-6.65139e-07 -1.17039e-06 0.0
9.37739e-07 -1.08255e-06 0.0