# vtk DataFile Version 2.0
LBM, Symulacje Komputerowe w Fizyce 2, Maciej Matyka 2020
ASCII
DATASET STRUCTURED_POINTS
DIMENSIONS 190 190 1
ORIGIN 0 0 0
SPACING 1 1 1
POINT_DATA 36100
VECTORS PolePredkosci double
0 0 0.0
0.0374482 -0.000170138 0.0
0.0656482 -0.000178913 0.0
0.081516 -0.000168944 0.0
0.0920102 -0.000153725 0.0
0.0996134 -0.000135127 0.0
0.105485 -0.000114565 0.0
0.110221 -9.26861e-05 0.0
0.114162 -6.98538e-05 0.0
0.117519 -4.62615e-05 0.0
0.120429 -2.20146e-05 0.0
0.122989 2.86768e-06 0.0
0.125268 2.83351e-05 0.0
0.127317 5.44133e-05 0.0
0.129175 8.11184e-05 0.0
0.130872 0.000108454 0.0
0.132432 0.000136479 0.0
0.133874 0.00016517 0.0
0.135215 0.000194558 0.0
0.136467 0.00022467 0.0
0.13764 0.000255538 0.0
0.138744 0.000287199 0.0
0.139787 0.000319674 0.0
0.140775 0.000352947 0.0
0.141714 0.000387035 0.0
0.142608 0.000422009 0.0
0.143462 0.000457816 0.0
0.14428 0.000494484 0.0
0.145065 0.000532054 0.0
0.14582 0.000570518 0.0
0.146547 0.000609832 0.0
0.147249 0.00065005 0.0
0.147927 0.000691136 0.0
0.148584 0.000733104 0.0
0.149221 0.000775871 0.0
0.14984 0.000819475 0.0
0.150442 0.00086389 0.0
0.151028 0.000909049 0.0
0.1516 0.000954941 0.0
0.152157 0.00100153 0.0
0.152702 0.00104877 0.0
0.153235 0.00109663 0.0
0.153756 0.00114506 0.0
0.154267 0.00119403 0.0
0.154768 0.00124342 0.0
0.155259 0.00129322 0.0
0.155742 0.00134335 0.0
0.156216 0.00139373 0.0
0.156682 0.00144433 0.0
0.15714 0.00149504 0.0
0.157592 0.00154582 0.0
0.158036 0.00159652 0.0
0.158474 0.00164711 0.0
0.158906 0.00169748 0.0
0.159332 0.00174757 0.0
0.159752 0.00179726 0.0
0.160166 0.00184647 0.0
0.160576 0.00189509 0.0
0.16098 0.00194303 0.0
0.161379 0.00199025 0.0
0.161774 0.00203661 0.0
0.162164 0.002082 0.0
0.162549 0.00212637 0.0
0.16293 0.00216964 0.0
0.163307 0.0022117 0.0
0.16368 0.00225242 0.0
0.164049 0.00229175 0.0
0.164414 0.00232961 0.0
0.164775 0.00236592 0.0
0.165132 0.00240052 0.0
0.165486 0.00243343 0.0
0.165836 0.00246453 0.0
0.166182 0.00249371 0.0
0.166525 0.00252097 0.0
0.166864 0.00254621 0.0
0.1672 0.00256939 0.0
0.167532 0.00259047 0.0
0.167861 0.00260935 0.0
0.168186 0.00262598 0.0
0.168508 0.00264034 0.0
0.168827 0.00265243 0.0
0.169142 0.00266219 0.0
0.169454 0.00266959 0.0
0.169762 0.00267463 0.0
0.170067 0.00267725 0.0
0.170368 0.00267751 0.0
0.170666 0.00267532 0.0
0.170961 0.00267071 0.0
0.171251 0.0026637 0.0
0.171539 0.00265433 0.0
0.171822 0.00264257 0.0
0.172102 0.00262845 0.0
0.172378 0.00261203 0.0
0.172651 0.00259333 0.0
0.17292 0.00257236 0.0
0.173185 0.00254918 0.0
0.173446 0.00252389 0.0
0.173703 0.00249646 0.0
0.173956 0.00246699 0.0
0.174205 0.00243556 0.0
0.17445 0.00240222 0.0
0.174691 0.00236701 0.0
0.174928 0.00233004 0.0
0.175161 0.00229137 0.0
0.175389 0.00225107 0.0
0.175613 0.00220927 0.0
0.175833 0.00216604 0.0
0.176048 0.00212144 0.0
0.176258 0.00207557 0.0
0.176465 0.00202859 0.0
0.176666 0.00198053 0.0
0.176863 0.00193148 0.0
0.177055 0.00188151 0.0
0.177243 0.00183074 0.0
0.177425 0.00177935 0.0
0.177603 0.00172738 0.0
0.177776 0.00167484 0.0
0.177944 0.00162195 0.0
0.178107 0.00156875 0.0
0.178264 0.00151537 0.0
0.178417 0.00146185 0.0
0.178564 0.00140829 0.0
0.178707 0.00135481 0.0
0.178843 0.00130147 0.0
0.178975 0.00124838 0.0
0.179101 0.00119555 0.0
0.179222 0.00114308 0.0
0.179337 0.0010911 0.0
0.179446 0.00103963 0.0
0.17955 0.000988757 0.0
0.179648 0.000938575 0.0
0.179741 0.000889075 0.0
0.179827 0.00084033 0.0
0.179908 0.000792372 0.0
0.179983 0.000745289 0.0
0.180051 0.000699128 0.0
0.180114 0.000653894 0.0
0.18017 0.00060962 0.0
0.18022 0.000566348 0.0
0.180264 0.000524122 0.0
0.180301 0.000482939 0.0
0.180332 0.00044281 0.0
0.180355 0.000403784 0.0
0.180372 0.000365853 0.0
0.180382 0.000328947 0.0
0.180385 0.00029316 0.0
0.180381 0.000258423 0.0
0.180369 0.000224764 0.0
0.180349 0.000192189 0.0
0.180321 0.00016064 0.0
0.180286 0.000130104 0.0
0.180241 0.000100583 0.0
0.180188 7.20693e-05 0.0
0.180126 4.45025e-05 0.0
0.180054 1.78943e-05 0.0
0.179972 -7.83715e-06 0.0
0.179879 -3.26843e-05 0.0
0.179775 -5.66991e-05 0.0
0.179659 -7.99522e-05 0.0
0.17953 -0.000102466 0.0
0.179387 -0.000124225 0.0
0.17923 -0.000145318 0.0
0.179057 -0.000165793 0.0
0.178866 -0.000185703 0.0
0.178656 -0.000205091 0.0
0.178425 -0.000224002 0.0
0.17817 -0.000242512 0.0
0.177889 -0.000260637 0.0
0.177579 -0.000278437 0.0
0.177234 -0.000296057 0.0
0.176851 -0.000313443 0.0
0.176423 -0.000330745 0.0
0.175944 -0.000348069 0.0
0.175403 -0.000365486 0.0
0.174789 -0.000383111 0.0
0.174088 -0.000401027 0.0
0.173279 -0.00041936 0.0
0.172338 -0.000438274 0.0
0.171229 -0.000457947 0.0
0.169905 -0.000478582 0.0
0.168298 -0.000500409 0.0
0.166307 -0.000523684 0.0
0.163782 -0.000548649 0.0
0.160481 -0.000575421 0.0
0.156 -0.000603559 0.0
0.149614 -0.000631128 0.0
0.139936 -0.000652084 0.0
0.124155 -0.000650392 0.0
0.0965442 -0.000586125 0.0
0.0472886 -0.000379263 0.0
0.106562 0.00681452 0.0
0.0897327 -0.0194138 0.0
0.0895366 -0.0144155 0.0
0.0948238 -0.0107135 0.0
0.100525 -0.00813396 0.0
0.105654 -0.00639755 0.0
0.110085 -0.00518983 0.0
0.113903 -0.00431653 0.0
0.117215 -0.00366122 0.0
0.120119 -0.00315323 0.0
0.122689 -0.00274844 0.0
0.124987 -0.00241819 0.0
0.127057 -0.00214324 0.0
0.128938 -0.00191025 0.0
0.130657 -0.00170969 0.0
0.132238 -0.00153459 0.0
0.1337 -0.00137983 0.0
0.135059 -0.00124148 0.0
0.136327 -0.0011164 0.0
0.137515 -0.00100233 0.0
0.138633 -0.000897325 0.0
0.139689 -0.000799846 0.0
0.140688 -0.000708618 0.0
0.141637 -0.00062269 0.0
0.142541 -0.00054118 0.0
0.143404 -0.000463421 0.0
0.14423 -0.000388785 0.0
0.145022 -0.000316833 0.0
0.145783 -0.000247081 0.0
0.146516 -0.000179172 0.0
0.147223 -0.000112839 0.0
0.147906 -4.77831e-05 0.0
0.148568 1.62195e-05 0.0
0.149209 7.93239e-05 0.0
0.149832 0.00014171 0.0
0.150437 0.000203522 0.0
0.151026 0.000264857 0.0
0.1516 0.000325786 0.0
0.15216 0.000386379 0.0
0.152707 0.000446717 0.0
0.153241 0.000506843 0.0
0.153764 0.000566793 0.0
0.154277 0.000626582 0.0
0.154779 0.000686223 0.0
0.155271 0.000745735 0.0
0.155755 0.000805079 0.0
0.15623 0.000864241 0.0
0.156696 0.000923223 0.0
0.157155 0.000981926 0.0
0.157607 0.00104033 0.0
0.158052 0.00109846 0.0
0.15849 0.00115622 0.0
0.158922 0.00121352 0.0
0.159347 0.00127033 0.0
0.159767 0.00132657 0.0
0.160181 0.00138214 0.0
0.16059 0.001437 0.0
0.160994 0.00149112 0.0
0.161392 0.00154436 0.0
0.161786 0.00159667 0.0
0.162175 0.00164798 0.0
0.16256 0.00169816 0.0
0.16294 0.00174713 0.0
0.163316 0.00179489 0.0
0.163688 0.00184134 0.0
0.164055 0.00188631 0.0
0.164419 0.00192978 0.0
0.164779 0.00197172 0.0
0.165135 0.00201197 0.0
0.165487 0.0020505 0.0
0.165836 0.00208723 0.0
0.166181 0.00212209 0.0
0.166523 0.00215499 0.0
0.166861 0.00218589 0.0
0.167195 0.00221474 0.0
0.167526 0.0022415 0.0
0.167854 0.00226609 0.0
0.168179 0.00228847 0.0
0.168499 0.00230862 0.0
0.168817 0.00232645 0.0
0.169131 0.00234199 0.0
0.169442 0.0023552 0.0
0.16975 0.00236605 0.0
0.170054 0.00237453 0.0
0.170354 0.00238062 0.0
0.170652 0.0023843 0.0
0.170946 0.00238556 0.0
0.171236 0.00238445 0.0
0.171523 0.00238093 0.0
0.171807 0.00237506 0.0
0.172087 0.00236685 0.0
0.172363 0.00235631 0.0
0.172636 0.00234348 0.0
0.172905 0.0023284 0.0
0.173171 0.00231112 0.0
0.173433 0.00229164 0.0
0.173691 0.00227005 0.0
0.173945 0.0022464 0.0
0.174196 0.00222075 0.0
0.174443 0.00219314 0.0
0.174685 0.00216364 0.0
0.174924 0.00213237 0.0
0.175159 0.00209933 0.0
0.175389 0.00206463 0.0
0.175616 0.00202842 0.0
0.175838 0.0019907 0.0
0.176056 0.00195158 0.0
0.17627 0.00191115 0.0
0.176479 0.00186952 0.0
0.176684 0.00182679 0.0
0.176884 0.001783 0.0
0.17708 0.00173828 0.0
0.177272 0.00169272 0.0
0.177458 0.00164641 0.0
0.177641 0.00159948 0.0
0.177818 0.001552 0.0
0.17799 0.00150405 0.0
0.178158 0.00145576 0.0
0.178321 0.00140726 0.0
0.178479 0.00135859 0.0
0.178632 0.00130984 0.0
0.178779 0.0012611 0.0
0.178922 0.00121245 0.0
0.179059 0.00116397 0.0
0.179192 0.00111582 0.0
0.179318 0.00106801 0.0
0.17944 0.00102062 0.0
0.179556 0.000973765 0.0
0.179666 0.000927437 0.0
0.179771 0.000881744 0.0
0.179871 0.000836804 0.0
0.179964 0.000792591 0.0
0.180052 0.000749226 0.0
0.180134 0.000706731 0.0
0.18021 0.000665157 0.0
0.180281 0.00062454 0.0
0.180345 0.000584964 0.0
0.180402 0.000546405 0.0
0.180454 0.000508935 0.0
0.180499 0.000472609 0.0
0.180538 0.000437399 0.0
0.18057 0.000403389 0.0
0.180596 0.000370525 0.0
0.180614 0.000338889 0.0
0.180626 0.000308472 0.0
0.180631 0.000279283 0.0
0.180628 0.000251331 0.0
0.180618 0.000224615 0.0
0.1806 0.000199191 0.0
0.180574 0.000175022 0.0
0.180539 0.00015213 0.0
0.180497 0.000130518 0.0
0.180445 0.000110206 0.0
0.180384 9.12335e-05 0.0
0.180314 7.35935e-05 0.0
0.180234 5.72969e-05 0.0
0.180142 4.24177e-05 0.0
0.18004 2.89594e-05 0.0
0.179926 1.69701e-05 0.0
0.179799 6.53493e-06 0.0
0.179658 -2.28336e-06 0.0
0.179502 -9.36628e-06 0.0
0.17933 -1.45992e-05 0.0
0.179142 -1.78491e-05 0.0
0.178933 -1.88939e-05 0.0
0.178704 -1.75453e-05 0.0
0.178452 -1.34182e-05 0.0
0.178173 -6.14681e-06 0.0
0.177865 4.75293e-06 0.0
0.177523 1.99314e-05 0.0
0.177143 4.0175e-05 0.0
0.17672 6.6521e-05 0.0
0.176245 0.000100353 0.0
0.17571 0.000143481 0.0
0.175103 0.000198333 0.0
0.174411 0.000268337 0.0
0.173614 0.000358028 0.0
0.172689 0.000474021 0.0
0.171602 0.000625874 0.0
0.17031 0.000827855 0.0
0.168749 0.001102 0.0
0.166831 0.00148324 0.0
0.164425 0.00202973 0.0
0.16133 0.00284173 0.0
0.157236 0.00410026 0.0
0.151658 0.00614416 0.0
0.143863 0.00961775 0.0
0.13293 0.0157001 0.0
0.118537 0.026093 0.0
0.104922 0.0399309 0.0
0.149036 0.0179221 0.0
0.139079 -0.00374205 0.0
0.126624 -0.0119458 0.0
0.121272 -0.0123154 0.0
0.11986 -0.0110827 0.0
0.120332 -0.00961073 0.0
0.121644 -0.00829001 0.0
0.123294 -0.007186 0.0
0.125044 -0.0062794 0.0
0.126783 -0.00553409 0.0
0.12846 -0.00491628 0.0
0.130055 -0.00439863 0.0
0.131562 -0.00395992 0.0
0.132981 -0.00358398 0.0
0.134318 -0.0032584 0.0
0.135579 -0.00297366 0.0
0.136768 -0.00272226 0.0
0.137892 -0.0024984 0.0
0.138957 -0.00229744 0.0
0.139969 -0.00211568 0.0
0.140931 -0.00195005 0.0
0.141848 -0.00179811 0.0
0.142725 -0.00165779 0.0
0.143564 -0.00152741 0.0
0.144369 -0.00140555 0.0
0.145143 -0.00129108 0.0
0.145888 -0.00118294 0.0
0.146606 -0.00108029 0.0
0.1473 -0.000982421 0.0
0.147971 -0.000888638 0.0
0.148622 -0.000798445 0.0
0.149253 -0.0007114 0.0
0.149866 -0.000627013 0.0
0.150462 -0.000545038 0.0
0.151043 -0.000465062 0.0
0.151609 -0.000386901 0.0
0.152162 -0.000310337 0.0
0.152702 -0.000235156 0.0
0.15323 -0.000161187 0.0
0.153747 -8.83082e-05 0.0
0.154253 -1.64164e-05 0.0
0.15475 5.4601e-05 0.0
0.155237 0.000124849 0.0
0.155715 0.00019437 0.0
0.156185 0.000263172 0.0
0.156647 0.000331352 0.0
0.157101 0.000398918 0.0
0.157548 0.00046585 0.0
0.157988 0.000532177 0.0
0.158422 0.000597844 0.0
0.15885 0.000662814 0.0
0.159271 0.000727165 0.0
0.159687 0.00079084 0.0
0.160098 0.000853699 0.0
0.160503 0.000915722 0.0
0.160903 0.00097693 0.0
0.161298 0.00103722 0.0
0.161688 0.00109653 0.0
0.162074 0.00115479 0.0
0.162455 0.00121193 0.0
0.162832 0.00126794 0.0
0.163204 0.00132271 0.0
0.163573 0.00137612 0.0
0.163938 0.00142818 0.0
0.164299 0.00147881 0.0
0.164656 0.00152789 0.0
0.165009 0.00157538 0.0
0.165359 0.0016212 0.0
0.165705 0.00166528 0.0
0.166047 0.00170759 0.0
0.166386 0.001748 0.0
0.166722 0.00178645 0.0
0.167054 0.00182293 0.0
0.167383 0.00185738 0.0
0.167709 0.00188975 0.0
0.168032 0.00191996 0.0
0.168351 0.00194798 0.0
0.168667 0.00197377 0.0
0.16898 0.00199727 0.0
0.169289 0.0020185 0.0
0.169596 0.00203738 0.0
0.169899 0.00205394 0.0
0.170199 0.00206809 0.0
0.170496 0.00207987 0.0
0.170789 0.00208927 0.0
0.17108 0.00209627 0.0
0.171367 0.00210092 0.0
0.17165 0.00210313 0.0
0.171931 0.00210299 0.0
0.172208 0.00210052 0.0
0.172482 0.00209574 0.0
0.172752 0.00208861 0.0
0.173019 0.00207925 0.0
0.173283 0.00206767 0.0
0.173543 0.00205391 0.0
0.1738 0.00203794 0.0
0.174053 0.00201996 0.0
0.174302 0.00199993 0.0
0.174548 0.00197789 0.0
0.17479 0.00195398 0.0
0.175028 0.00192821 0.0
0.175262 0.0019007 0.0
0.175493 0.00187147 0.0
0.17572 0.00184063 0.0
0.175942 0.0018083 0.0
0.176161 0.00177451 0.0
0.176375 0.00173937 0.0
0.176586 0.00170297 0.0
0.176792 0.00166543 0.0
0.176994 0.00162679 0.0
0.177192 0.00158715 0.0
0.177385 0.00154665 0.0
0.177574 0.00150534 0.0
0.177759 0.00146336 0.0
0.177939 0.00142073 0.0
0.178114 0.00137765 0.0
0.178285 0.00133414 0.0
0.178451 0.00129036 0.0
0.178613 0.00124637 0.0
0.178769 0.00120225 0.0
0.178921 0.00115813 0.0
0.179068 0.00111407 0.0
0.179209 0.00107018 0.0
0.179346 0.00102647 0.0
0.179478 0.000983142 0.0
0.179604 0.000940231 0.0
0.179725 0.00089781 0.0
0.179841 0.000855935 0.0
0.179951 0.000814685 0.0
0.180056 0.000774103 0.0
0.180156 0.000734335 0.0
0.180249 0.000695349 0.0
0.180337 0.000657278 0.0
0.18042 0.000620163 0.0
0.180496 0.000584062 0.0
0.180567 0.000548973 0.0
0.180631 0.000514955 0.0
0.18069 0.000482075 0.0
0.180742 0.000450394 0.0
0.180788 0.000419888 0.0
0.180827 0.000390648 0.0
0.18086 0.000362692 0.0
0.180887 0.00033602 0.0
0.180906 0.000310683 0.0
0.180919 0.000286717 0.0
0.180924 0.000264112 0.0
0.180922 0.00024291 0.0
0.180913 0.000223137 0.0
0.180896 0.000204797 0.0
0.180871 0.000187993 0.0
0.180838 0.000172736 0.0
0.180796 0.000159049 0.0
0.180746 0.000146965 0.0
0.180686 0.000136546 0.0
0.180617 0.00012787 0.0
0.180538 0.000121023 0.0
0.180448 0.000116056 0.0
0.180347 0.000113099 0.0
0.180235 0.000112318 0.0
0.180109 0.000113838 0.0
0.17997 0.00011789 0.0
0.179817 0.000124677 0.0
0.179647 0.000134535 0.0
0.179461 0.000147748 0.0
0.179256 0.000164795 0.0
0.17903 0.000186188 0.0
0.178781 0.000212586 0.0
0.178507 0.000244783 0.0
0.178204 0.000283858 0.0
0.17787 0.00033104 0.0
0.177498 0.000387953 0.0
0.177084 0.000456696 0.0
0.176621 0.00053999 0.0
0.176102 0.000641403 0.0
0.175515 0.000765674 0.0
0.174848 0.000919184 0.0
0.174086 0.00111072 0.0
0.173207 0.00135263 0.0
0.172184 0.00166248 0.0
0.170982 0.00206615 0.0
0.169554 0.00260246 0.0
0.167836 0.00333136 0.0
0.165745 0.00434822 0.0
0.163171 0.00580885 0.0
0.159982 0.00797177 0.0
0.156052 0.0112642 0.0
0.151389 0.0163473 0.0
0.146507 0.0240019 0.0
0.143405 0.0339389 0.0
0.146875 0.0381943 0.0
0.16881 0.0226795 0.0
0.164168 0.00777008 0.0
0.155016 -0.0024425 0.0
0.146883 -0.00733138 0.0
0.141526 -0.00892924 0.0
0.138394 -0.00909141 0.0
0.136765 -0.00866309 0.0
0.136093 -0.00803132 0.0
0.136017 -0.0073629 0.0
0.13631 -0.00672569 0.0
0.136828 -0.00614355 0.0
0.13748 -0.00562144 0.0
0.138211 -0.00515639 0.0
0.138985 -0.0047427 0.0
0.139777 -0.00437409 0.0
0.140573 -0.00404454 0.0
0.141363 -0.00374859 0.0
0.142142 -0.00348159 0.0
0.142905 -0.00323949 0.0
0.143651 -0.00301889 0.0
0.144378 -0.00281684 0.0
0.145087 -0.00263088 0.0
0.145776 -0.00245887 0.0
0.146448 -0.00229902 0.0
0.147101 -0.00214975 0.0
0.147737 -0.00200975 0.0
0.148357 -0.00187786 0.0
0.148961 -0.00175315 0.0
0.14955 -0.00163469 0.0
0.150125 -0.00152178 0.0
0.150687 -0.00141375 0.0
0.151236 -0.00130994 0.0
0.151773 -0.00120993 0.0
0.152299 -0.00111332 0.0
0.152815 -0.00101963 0.0
0.15332 -0.00092857 0.0
0.153815 -0.000839877 0.0
0.154302 -0.000753272 0.0
0.154779 -0.000668554 0.0
0.155249 -0.000585521 0.0
0.155711 -0.000504015 0.0
0.156165 -0.000423863 0.0
0.156612 -0.000344997 0.0
0.157053 -0.000267275 0.0
0.157487 -0.000190668 0.0
0.157915 -0.00011505 0.0
0.158337 -4.04227e-05 0.0
0.158753 3.32695e-05 0.0
0.159164 0.000106076 0.0
0.15957 0.000177968 0.0
0.159971 0.000248919 0.0
0.160366 0.000318994 0.0
0.160758 0.000388101 0.0
0.161144 0.000456287 0.0
0.161526 0.000523445 0.0
0.161904 0.000589587 0.0
0.162278 0.000654638 0.0
0.162648 0.000718574 0.0
0.163014 0.000781345 0.0
0.163376 0.000842844 0.0
0.163735 0.00090306 0.0
0.164089 0.000961945 0.0
0.164441 0.00101943 0.0
0.164788 0.00107537 0.0
0.165133 0.0011298 0.0
0.165474 0.00118263 0.0
0.165811 0.00123381 0.0
0.166146 0.00128322 0.0
0.166477 0.00133081 0.0
0.166806 0.00137657 0.0
0.167131 0.00142039 0.0
0.167453 0.00146222 0.0
0.167772 0.00150206 0.0
0.168088 0.00153979 0.0
0.168401 0.00157541 0.0
0.168711 0.00160884 0.0
0.169018 0.00164006 0.0
0.169322 0.001669 0.0
0.169623 0.00169565 0.0
0.169921 0.00172001 0.0
0.170217 0.00174202 0.0
0.170509 0.00176167 0.0
0.170798 0.00177896 0.0
0.171085 0.00179383 0.0
0.171368 0.00180635 0.0
0.171649 0.00181651 0.0
0.171926 0.00182429 0.0
0.172201 0.00182967 0.0
0.172472 0.0018327 0.0
0.17274 0.00183344 0.0
0.173005 0.00183182 0.0
0.173267 0.00182797 0.0
0.173526 0.0018219 0.0
0.173782 0.0018136 0.0
0.174034 0.00180313 0.0
0.174283 0.00179058 0.0
0.174529 0.00177595 0.0
0.174771 0.00175933 0.0
0.17501 0.00174079 0.0
0.175245 0.00172034 0.0
0.175477 0.00169812 0.0
0.175705 0.00167417 0.0
0.175929 0.00164857 0.0
0.17615 0.00162145 0.0
0.176367 0.0015928 0.0
0.176581 0.00156276 0.0
0.17679 0.00153142 0.0
0.176996 0.00149884 0.0
0.177197 0.00146514 0.0
0.177394 0.00143042 0.0
0.177588 0.00139477 0.0
0.177777 0.00135828 0.0
0.177962 0.00132107 0.0
0.178143 0.00128319 0.0
0.17832 0.00124476 0.0
0.178492 0.00120589 0.0
0.178659 0.00116672 0.0
0.178822 0.00112724 0.0
0.178981 0.00108764 0.0
0.179135 0.00104795 0.0
0.179284 0.00100829 0.0
0.179428 0.00096879 0.0
0.179568 0.000929481 0.0
0.179703 0.000890488 0.0
0.179832 0.000851846 0.0
0.179957 0.000813687 0.0
0.180076 0.000776088 0.0
0.180191 0.000739062 0.0
0.1803 0.000702768 0.0
0.180404 0.000667226 0.0
0.180502 0.000632558 0.0
0.180595 0.000598717 0.0
0.180682 0.000565854 0.0
0.180763 0.000534032 0.0
0.180839 0.000503262 0.0
0.180909 0.000473611 0.0
0.180973 0.000445143 0.0
0.181031 0.000417906 0.0
0.181083 0.000391915 0.0
0.181129 0.000367197 0.0
0.181168 0.000343859 0.0
0.181201 0.000321889 0.0
0.181227 0.000301382 0.0
0.181247 0.0002823 0.0
0.181259 0.000264706 0.0
0.181265 0.00024861 0.0
0.181263 0.000234118 0.0
0.181254 0.000221217 0.0
0.181238 0.000209994 0.0
0.181213 0.000200529 0.0
0.18118 0.000192799 0.0
0.181139 0.000186947 0.0
0.18109 0.00018299 0.0
0.181031 0.000181084 0.0
0.180963 0.000181295 0.0
0.180884 0.000183738 0.0
0.180796 0.000188583 0.0
0.180696 0.000196067 0.0
0.180585 0.000206346 0.0
0.180461 0.000219629 0.0
0.180324 0.000236303 0.0
0.180173 0.000256695 0.0
0.180007 0.000281281 0.0
0.179824 0.000310573 0.0
0.179622 0.000345211 0.0
0.179401 0.000386035 0.0
0.179158 0.000433912 0.0
0.178891 0.000490133 0.0
0.178597 0.000556155 0.0
0.178272 0.000633792 0.0
0.177912 0.000725484 0.0
0.177514 0.000834141 0.0
0.17707 0.000963634 0.0
0.176575 0.00111893 0.0
0.176019 0.00130664 0.0
0.175393 0.00153549 0.0
0.174683 0.00181736 0.0
0.173875 0.00216865 0.0
0.172949 0.00261222 0.0
0.171882 0.00318071 0.0
0.170646 0.00392161 0.0
0.169209 0.00490521 0.0
0.167541 0.00623704 0.0
0.165621 0.00807673 0.0
0.163467 0.0106622 0.0
0.161204 0.0143262 0.0
0.159204 0.0194422 0.0
0.158345 0.0260689 0.0
0.160195 0.0326254 0.0
0.16522 0.0338439 0.0
0.178415 0.0235044 0.0
0.1773 0.0139875 0.0
0.172176 0.00536274 0.0
0.165768 -0.000680218 0.0
0.159933 -0.00422234 0.0
0.155366 -0.00602374 0.0
0.152037 -0.00679865 0.0
0.149717 -0.00700091 0.0
0.148162 -0.00689794 0.0
0.147167 -0.006641 0.0
0.146581 -0.0063138 0.0
0.146289 -0.00596211 0.0
0.146211 -0.00561031 0.0
0.146288 -0.00527095 0.0
0.146478 -0.00494983 0.0
0.14675 -0.00464928 0.0
0.147083 -0.00436954 0.0
0.147458 -0.00410979 0.0
0.147865 -0.00386873 0.0
0.148294 -0.00364481 0.0
0.148739 -0.00343651 0.0
0.149193 -0.00324231 0.0
0.149654 -0.00306081 0.0
0.150118 -0.00289068 0.0
0.150583 -0.0027307 0.0
0.151048 -0.00257982 0.0
0.151511 -0.0024371 0.0
0.151971 -0.00230161 0.0
0.152428 -0.00217263 0.0
0.152881 -0.00204949 0.0
0.15333 -0.00193151 0.0
0.153775 -0.00181817 0.0
0.154215 -0.00170896 0.0
0.15465 -0.00160346 0.0
0.155081 -0.0015013 0.0
0.155507 -0.00140209 0.0
0.155928 -0.0013056 0.0
0.156345 -0.00121153 0.0
0.156757 -0.0011196 0.0
0.157166 -0.00102967 0.0
0.157569 -0.00094153 0.0
0.157969 -0.000855011 0.0
0.158364 -0.000770033 0.0
0.158755 -0.000686454 0.0
0.159143 -0.000604152 0.0
0.159526 -0.000523105 0.0
0.159906 -0.000443226 0.0
0.160282 -0.000364469 0.0
0.160654 -0.000286745 0.0
0.161023 -0.000210119 0.0
0.161389 -0.000134516 0.0
0.161751 -5.99841e-05 0.0
0.16211 1.34584e-05 0.0
0.162465 8.58049e-05 0.0
0.162818 0.000157071 0.0
0.163167 0.000227156 0.0
0.163513 0.00029609 0.0
0.163856 0.000363814 0.0
0.164196 0.000430273 0.0
0.164533 0.000495422 0.0
0.164867 0.000559182 0.0
0.165199 0.000621496 0.0
0.165527 0.000682336 0.0
0.165853 0.00074161 0.0
0.166176 0.000799345 0.0
0.166497 0.000855379 0.0
0.166814 0.000909698 0.0
0.167129 0.000962228 0.0
0.167441 0.00101288 0.0
0.167751 0.00106163 0.0
0.168058 0.00110846 0.0
0.168363 0.00115329 0.0
0.168664 0.00119606 0.0
0.168964 0.00123669 0.0
0.16926 0.00127517 0.0
0.169555 0.0013115 0.0
0.169846 0.00134557 0.0
0.170135 0.00137735 0.0
0.170421 0.00140686 0.0
0.170705 0.00143406 0.0
0.170986 0.00145886 0.0
0.171265 0.00148133 0.0
0.171541 0.00150143 0.0
0.171814 0.00151917 0.0
0.172085 0.00153455 0.0
0.172353 0.00154757 0.0
0.172618 0.00155822 0.0
0.172881 0.00156653 0.0
0.17314 0.00157249 0.0
0.173397 0.00157614 0.0
0.173651 0.00157748 0.0
0.173903 0.00157664 0.0
0.174151 0.00157357 0.0
0.174396 0.00156828 0.0
0.174639 0.00156091 0.0
0.174878 0.00155145 0.0
0.175114 0.00153996 0.0
0.175347 0.00152652 0.0
0.175577 0.00151121 0.0
0.175804 0.00149404 0.0
0.176027 0.00147513 0.0
0.176248 0.00145453 0.0
0.176464 0.00143233 0.0
0.176678 0.00140861 0.0
0.176887 0.00138343 0.0
0.177094 0.00135691 0.0
0.177296 0.00132913 0.0
0.177495 0.00130018 0.0
0.17769 0.00127017 0.0
0.177882 0.00123917 0.0
0.178069 0.00120729 0.0
0.178253 0.00117464 0.0
0.178432 0.00114128 0.0
0.178608 0.00110734 0.0
0.178779 0.00107287 0.0
0.178947 0.00103801 0.0
0.17911 0.00100292 0.0
0.179269 0.000967605 0.0
0.179423 0.000932199 0.0
0.179573 0.000896788 0.0
0.179718 0.000861429 0.0
0.179859 0.000826307 0.0
0.179995 0.000791415 0.0
0.180127 0.000756892 0.0
0.180253 0.000722849 0.0
0.180375 0.000689276 0.0
0.180492 0.000656366 0.0
0.180604 0.000624116 0.0
0.18071 0.000592657 0.0
0.180812 0.000561992 0.0
0.180908 0.000532251 0.0
0.180999 0.000503462 0.0
0.181084 0.00047571 0.0
0.181164 0.000449065 0.0
0.181238 0.000423584 0.0
0.181307 0.000399267 0.0
0.181369 0.000376248 0.0
0.181426 0.000354519 0.0
0.181476 0.000334144 0.0
0.181521 0.000315164 0.0
0.181559 0.000297641 0.0
0.181591 0.000281592 0.0
0.181617 0.000267112 0.0
0.181635 0.000254205 0.0
0.181647 0.000242949 0.0
0.181652 0.000233356 0.0
0.18165 0.000225476 0.0
0.18164 0.000219413 0.0
0.181623 0.000215206 0.0
0.181599 0.000212923 0.0
0.181566 0.000212711 0.0
0.181525 0.000214574 0.0
0.181475 0.000218666 0.0
0.181417 0.000225132 0.0
0.181349 0.000234051 0.0
0.181271 0.000245653 0.0
0.181184 0.000260154 0.0
0.181085 0.000277831 0.0
0.180975 0.000298865 0.0
0.180853 0.000323656 0.0
0.180719 0.00035261 0.0
0.18057 0.000386194 0.0
0.180407 0.000425018 0.0
0.180228 0.000469744 0.0
0.180032 0.000521259 0.0
0.179817 0.00058054 0.0
0.179581 0.00064888 0.0
0.179322 0.000727711 0.0
0.179038 0.000818952 0.0
0.178727 0.00092495 0.0
0.178383 0.00104864 0.0
0.178005 0.00119367 0.0
0.177586 0.00136472 0.0
0.177122 0.00156781 0.0
0.176607 0.00181081 0.0
0.176032 0.00210395 0.0
0.175389 0.00246093 0.0
0.174669 0.00290021 0.0
0.173861 0.00344682 0.0
0.172954 0.0041353 0.0
0.17194 0.00501387 0.0
0.170814 0.00615019 0.0
0.169588 0.00763903 0.0
0.168304 0.00961077 0.0
0.167065 0.012235 0.0
0.166094 0.0156986 0.0
0.165813 0.0200987 0.0
0.166903 0.0251092 0.0
0.170031 0.0293161 0.0
0.174826 0.0297342 0.0
0.183427 0.0225804 0.0
0.184058 0.0165948 0.0
0.181835 0.0102105 0.0
0.177838 0.00473901 0.0
0.173265 0.000677123 0.0
0.168929 -0.00205198 0.0
0.165202 -0.00375687 0.0
0.162168 -0.00475333 0.0
0.159773 -0.00528326 0.0
0.157924 -0.00551479 0.0
0.15652 -0.00555926 0.0
0.155473 -0.00548889 0.0
0.154707 -0.00534995 0.0
0.154165 -0.00517193 0.0
0.153799 -0.0049735 0.0
0.153572 -0.00476651 0.0
0.153457 -0.00455825 0.0
0.153431 -0.00435322 0.0
0.153475 -0.00415403 0.0
0.153577 -0.00396214 0.0
0.153725 -0.00377819 0.0
0.15391 -0.0036024 0.0
0.154126 -0.0034347 0.0
0.154366 -0.00327465 0.0
0.154625 -0.00312193 0.0
0.154902 -0.00297608 0.0
0.155191 -0.00283657 0.0
0.155491 -0.00270293 0.0
0.155799 -0.00257466 0.0
0.156115 -0.0024513 0.0
0.156436 -0.00233243 0.0
0.156761 -0.0022177 0.0
0.15709 -0.00210665 0.0
0.157422 -0.00199897 0.0
0.157755 -0.00189438 0.0
0.15809 -0.00179259 0.0
0.158426 -0.0016933 0.0
0.158762 -0.00159635 0.0
0.159098 -0.00150146 0.0
0.159435 -0.00140854 0.0
0.15977 -0.00131735 0.0
0.160105 -0.00122778 0.0
0.16044 -0.00113969 0.0
0.160773 -0.00105303 0.0
0.161105 -0.000967681 0.0
0.161436 -0.000883554 0.0
0.161766 -0.000800637 0.0
0.162094 -0.000718862 0.0
0.162421 -0.000638154 0.0
0.162746 -0.000558564 0.0
0.16307 -0.00048005 0.0
0.163392 -0.000402579 0.0
0.163712 -0.000326267 0.0
0.16403 -0.000251076 0.0
0.164347 -0.000177017 0.0
0.164662 -0.000104115 0.0
0.164975 -3.24115e-05 0.0
0.165286 3.79991e-05 0.0
0.165595 0.000107144 0.0
0.165903 0.000174978 0.0
0.166208 0.000241438 0.0
0.166511 0.000306384 0.0
0.166813 0.00036983 0.0
0.167113 0.000431717 0.0
0.16741 0.000491977 0.0
0.167706 0.000550571 0.0
0.167999 0.000607397 0.0
0.168291 0.000662415 0.0
0.168581 0.000715588 0.0
0.168868 0.000766818 0.0
0.169154 0.000816113 0.0
0.169437 0.000863413 0.0
0.169719 0.000908629 0.0
0.169998 0.000951716 0.0
0.170275 0.000992634 0.0
0.17055 0.00103137 0.0
0.170823 0.00106783 0.0
0.171094 0.00110208 0.0
0.171363 0.00113402 0.0
0.17163 0.00116366 0.0
0.171894 0.00119096 0.0
0.172156 0.00121588 0.0
0.172416 0.00123843 0.0
0.172674 0.00125866 0.0
0.17293 0.00127655 0.0
0.173183 0.00129209 0.0
0.173433 0.00130528 0.0
0.173682 0.00131615 0.0
0.173928 0.00132471 0.0
0.174171 0.00133099 0.0
0.174412 0.00133503 0.0
0.174651 0.00133683 0.0
0.174886 0.00133643 0.0
0.17512 0.00133392 0.0
0.17535 0.00132933 0.0
0.175578 0.00132271 0.0
0.175803 0.00131412 0.0
0.176025 0.00130357 0.0
0.176244 0.00129119 0.0
0.176461 0.00127702 0.0
0.176674 0.00126113 0.0
0.176884 0.00124361 0.0
0.177092 0.00122452 0.0
0.177296 0.00120397 0.0
0.177496 0.00118204 0.0
0.177694 0.00115879 0.0
0.177888 0.00113432 0.0
0.178079 0.00110874 0.0
0.178267 0.00108216 0.0
0.17845 0.00105464 0.0
0.178631 0.00102628 0.0
0.178807 0.000997211 0.0
0.17898 0.000967493 0.0
0.179149 0.000937248 0.0
0.179314 0.000906572 0.0
0.179475 0.000875541 0.0
0.179633 0.000844299 0.0
0.179786 0.000812949 0.0
0.179935 0.000781519 0.0
0.18008 0.000750192 0.0
0.18022 0.000718969 0.0
0.180356 0.000688003 0.0
0.180488 0.000657398 0.0
0.180615 0.000627187 0.0
0.180737 0.000597502 0.0
0.180855 0.000568439 0.0
0.180968 0.000540021 0.0
0.181076 0.000512397 0.0
0.18118 0.000485582 0.0
0.181278 0.000459681 0.0
0.181371 0.00043476 0.0
0.181459 0.000410869 0.0
0.181541 0.0003881 0.0
0.181618 0.000366532 0.0
0.18169 0.000346153 0.0
0.181756 0.000327091 0.0
0.181816 0.000309379 0.0
0.18187 0.000293087 0.0
0.181919 0.000278238 0.0
0.181961 0.00026488 0.0
0.181998 0.000253091 0.0
0.182028 0.00024289 0.0
0.182052 0.000234333 0.0
0.182069 0.000227523 0.0
0.182079 0.000222472 0.0
0.182083 0.00021926 0.0
0.18208 0.000217933 0.0
0.182069 0.000218608 0.0
0.182051 0.000221331 0.0
0.182025 0.00022612 0.0
0.181992 0.000233211 0.0
0.18195 0.000242675 0.0
0.1819 0.000254649 0.0
0.181842 0.000269229 0.0
0.181774 0.000286681 0.0
0.181697 0.000307232 0.0
0.18161 0.000331129 0.0
0.181512 0.000358669 0.0
0.181404 0.00039018 0.0
0.181284 0.000426066 0.0
0.181151 0.000466834 0.0
0.181006 0.000513068 0.0
0.180846 0.00056546 0.0
0.180672 0.000624879 0.0
0.180481 0.000692272 0.0
0.180273 0.000768892 0.0
0.180045 0.000856184 0.0
0.179797 0.000955896 0.0
0.179526 0.00107025 0.0
0.17923 0.00120191 0.0
0.178906 0.00135419 0.0
0.178551 0.00153125 0.0
0.178161 0.0017383 0.0
0.177734 0.001982 0.0
0.177265 0.00227076 0.0
0.176749 0.00261557 0.0
0.176182 0.0030306 0.0
0.17556 0.00353449 0.0
0.17488 0.00415173 0.0
0.174141 0.00491495 0.0
0.173351 0.00586726 0.0
0.172525 0.00706554 0.0
0.171702 0.0085831 0.0
0.170953 0.0105098 0.0
0.170411 0.0129423 0.0
0.170296 0.0159487 0.0
0.170945 0.0194694 0.0
0.172763 0.0231119 0.0
0.175977 0.0258716 0.0
0.180093 0.0261126 0.0
0.186105 0.0209541 0.0
0.187509 0.0171792 0.0
0.18701 0.0126842 0.0
0.184959 0.00831199 0.0
0.181968 0.00456826 0.0
0.178626 0.00163476 0.0
0.175348 -0.000524878 0.0
0.172361 -0.0020449 0.0
0.169756 -0.00307621 0.0
0.167545 -0.00374979 0.0
0.165701 -0.00416802 0.0
0.164184 -0.00440672 0.0
0.162947 -0.00452045 0.0
0.161947 -0.0045479 0.0
0.161146 -0.0045164 0.0
0.160512 -0.00444509 0.0
0.160018 -0.0043474 0.0
0.15964 -0.0042327 0.0
0.159359 -0.00410759 0.0
0.159161 -0.00397663 0.0
0.159031 -0.00384297 0.0
0.158961 -0.00370879 0.0
0.158939 -0.00357561 0.0
0.15896 -0.00344432 0.0
0.159017 -0.00331557 0.0
0.159105 -0.00318975 0.0
0.159219 -0.00306703 0.0
0.159356 -0.00294742 0.0
0.159512 -0.00283088 0.0
0.159686 -0.00271734 0.0
0.159874 -0.00260671 0.0
0.160075 -0.00249881 0.0
0.160287 -0.00239343 0.0
0.160509 -0.00229047 0.0
0.160739 -0.00218974 0.0
0.160977 -0.00209109 0.0
0.16122 -0.00199436 0.0
0.16147 -0.00189939 0.0
0.161724 -0.00180605 0.0
0.161982 -0.0017142 0.0
0.162244 -0.00162378 0.0
0.162509 -0.00153467 0.0
0.162776 -0.00144678 0.0
0.163046 -0.00136006 0.0
0.163318 -0.00127444 0.0
0.163591 -0.00118988 0.0
0.163866 -0.00110636 0.0
0.164141 -0.00102382 0.0
0.164417 -0.000942282 0.0
0.164694 -0.000861711 0.0
0.164971 -0.000782101 0.0
0.165248 -0.000703493 0.0
0.165525 -0.00062593 0.0
0.165802 -0.000549424 0.0
0.166079 -0.00047393 0.0
0.166356 -0.000399565 0.0
0.166632 -0.000326382 0.0
0.166907 -0.000254402 0.0
0.167182 -0.000183693 0.0
0.167456 -0.000114239 0.0
0.167728 -4.61547e-05 0.0
0.168001 2.05072e-05 0.0
0.168272 8.56652e-05 0.0
0.168542 0.000149267 0.0
0.168811 0.000211266 0.0
0.169078 0.000271615 0.0
0.169345 0.000330249 0.0
0.16961 0.000387067 0.0
0.169874 0.000442057 0.0
0.170136 0.000495146 0.0
0.170398 0.000546266 0.0
0.170658 0.000595424 0.0
0.170916 0.000642525 0.0
0.171173 0.000687507 0.0
0.171428 0.00073033 0.0
0.171682 0.000770995 0.0
0.171934 0.000809455 0.0
0.172184 0.000845678 0.0