# vtk DataFile Version 2.0
LBM, Symulacje Komputerowe w Fizyce 2, Maciej Matyka 2019
ASCII
DATASET STRUCTURED_POINTS
DIMENSIONS 100 50 1
ORIGIN 0 0 0
SPACING 1 1 1
POINT_DATA 5000
VECTORS PolePredkosci double
0 0 0.0
0 0 0.0
0 0 0.0
0 0 0.0
0 0 0.0
0 0 0.0
0 0 0.0
0 0 0.0
0 0 0.0
0 0 0.0
0 0 0.0
0 0 0.0
0 0 0.0
0 0 0.0
0 0 0.0
0 0 0.0
0 0 0.0
0 0 0.0
0 0 0.0
0 0 0.0
0 0 0.0
0 0 0.0
0 0 0.0
0 0 0.0
0 0 0.0
0 0 0.0
0 0 0.0
0 0 0.0
0 0 0.0
0 0 0.0
0 0 0.0
0 0 0.0
0 0 0.0
0 0 0.0
0 0 0.0
0 0 0.0
0 0 0.0
0 0 0.0
0 0 0.0
0 0 0.0
0 0 0.0
0 0 0.0
0 0 0.0
0 0 0.0
0 0 0.0
0 0 0.0
0 0 0.0
0 0 0.0
0 0 0.0
0 0 0.0
0 0 0.0
0 0 0.0
0 0 0.0
0 0 0.0
0 0 0.0
0 0 0.0
0 0 0.0
0 0 0.0
0 0 0.0
0 0 0.0
0 0 0.0
0 0 0.0
0 0 0.0
0 0 0.0
0 0 0.0
0 0 0.0
0 0 0.0
0 0 0.0
0 0 0.0
0 0 0.0
0 0 0.0
0 0 0.0
0 0 0.0
0 0 0.0
0 0 0.0
0 0 0.0
0 0 0.0
0 0 0.0
0 0 0.0
0 0 0.0
0 0 0.0
0 0 0.0
0 0 0.0
0 0 0.0
0 0 0.0
0 0 0.0
0 0 0.0
0 0 0.0
0 0 0.0
0 0 0.0
0 0 0.0
0 0 0.0
0 0 0.0
0 0 0.0
0 0 0.0
0 0 0.0
0 0 0.0
0 0 0.0
0 0 0.0
0 0 0.0
3.25783e-05 -7.4503e-08 0.0
3.26042e-05 -7.26399e-08 0.0
3.26244e-05 -6.89144e-08 0.0
3.26373e-05 -7.63641e-08 0.0
3.2706e-05 -7.63636e-08 0.0
3.27803e-05 -8.56758e-08 0.0
3.28713e-05 -8.00877e-08 0.0
3.29661e-05 -8.93997e-08 0.0
3.31559e-05 -9.31241e-08 0.0
3.32916e-05 -8.93985e-08 0.0
3.35615e-05 -7.82232e-08 0.0
3.37866e-05 -1.26646e-07 0.0
3.40751e-05 -1.5272e-07 0.0
3.44548e-05 -1.69481e-07 0.0
3.48942e-05 -2.21627e-07 0.0
3.54154e-05 -2.42112e-07 0.0
3.59963e-05 -2.75634e-07 0.0
3.66683e-05 -2.99843e-07 0.0
3.74838e-05 -3.31501e-07 0.0
3.84409e-05 -4.1158e-07 0.0
3.95301e-05 -4.54412e-07 0.0
4.08558e-05 -5.23315e-07 0.0
4.23026e-05 -5.71732e-07 0.0
4.40474e-05 -6.40635e-07 0.0
4.60212e-05 -7.33746e-07 0.0
4.82612e-05 -8.41755e-07 0.0
5.07825e-05 -9.83284e-07 0.0
5.36353e-05 -1.10619e-06 0.0
5.68921e-05 -1.20861e-06 0.0
6.05438e-05 -1.36503e-06 0.0
6.46368e-05 -1.51028e-06 0.0
6.91991e-05 -1.67602e-06 0.0
7.41768e-05 -1.8492e-06 0.0
7.96647e-05 -2.01308e-06 0.0
8.55493e-05 -2.14716e-06 0.0
9.1948e-05 -2.26634e-06 0.0
9.87175e-05 -2.41347e-06 0.0
0.00010583 -2.53452e-06 0.0
0.000113242 -2.59412e-06 0.0
0.000120865 -2.66305e-06 0.0
0.000128561 -2.67796e-06 0.0
0.000136172 -2.6184e-06 0.0
0.000143522 -2.48993e-06 0.0
0.000150483 -2.32421e-06 0.0
0.000156888 -2.12497e-06 0.0
0.000162578 -1.86054e-06 0.0
0.00016742 -1.55327e-06 0.0
0.00017128 -1.16404e-06 0.0
0.000174084 -8.25089e-07 0.0
0.000175807 -4.06034e-07 0.0
0.000176345 -2.60761e-08 0.0
0.000175795 3.68797e-07 0.0
0.000174027 7.8045e-07 0.0
0.000171281 1.14928e-06 0.0
0.000167363 1.45292e-06 0.0
0.000162556 1.75471e-06 0.0
0.00015681 2.02111e-06 0.0
0.000150479 2.23909e-06 0.0
0.000143464 2.40119e-06 0.0
0.000136195 2.49622e-06 0.0
0.000128504 2.58007e-06 0.0
0.000120992 2.62294e-06 0.0
0.000113296 2.54844e-06 0.0
0.000105973 2.48138e-06 0.0
9.87359e-05 2.37707e-06 0.0
9.20669e-05 2.22059e-06 0.0
8.56343e-05 2.05293e-06 0.0
7.98015e-05 1.89831e-06 0.0
7.42947e-05 1.76604e-06 0.0
6.93988e-05 1.59465e-06 0.0
6.48159e-05 1.42326e-06 0.0
6.07638e-05 1.27981e-06 0.0
5.7036e-05 1.15499e-06 0.0
5.38465e-05 1.03949e-06 0.0
5.09122e-05 9.03491e-07 0.0
4.8425e-05 8.06618e-07 0.0
4.61036e-05 7.321e-07 0.0
4.42033e-05 6.27777e-07 0.0
4.24017e-05 5.55123e-07 0.0
4.09652e-05 4.75018e-07 0.0
3.96144e-05 4.15406e-07 0.0
3.85766e-05 3.55794e-07 0.0
3.75425e-05 2.86869e-07 0.0
3.67525e-05 2.70102e-07 0.0
3.60239e-05 2.17943e-07 0.0
3.54537e-05 1.52745e-07 0.0
3.49189e-05 1.02451e-07 0.0
3.44884e-05 1.04313e-07 0.0
3.41268e-05 1.04312e-07 0.0
3.38174e-05 1.06174e-07 0.0
3.35657e-05 7.07822e-08 0.0
3.33345e-05 1.86268e-08 0.0
3.31462e-05 -5.588e-09 0.0
3.30044e-05 -1.11759e-08 0.0
3.28813e-05 -4.28408e-08 0.0
3.27991e-05 -5.21537e-08 0.0
3.26834e-05 -2.42141e-08 0.0
3.26441e-05 -7.07792e-08 0.0
3.25712e-05 -4.28397e-08 0.0
3.25748e-05 -3.91143e-08 0.0
9.8072e-05 9.87164e-08 0.0
9.80919e-05 3.72513e-08 0.0
9.81825e-05 3.7251e-09 0.0
9.82918e-05 -5.58762e-08 0.0
9.84607e-05 -8.00887e-08 0.0
9.86799e-05 -1.37826e-07 0.0
9.89717e-05 -2.01151e-07 0.0
9.93119e-05 -2.53299e-07 0.0
9.97638e-05 -3.44559e-07 0.0
0.000100261 -4.22781e-07 0.0
0.000100943 -5.14039e-07 0.0
0.000101673 -6.3137e-07 0.0
0.000102607 -7.50562e-07 0.0
0.000103676 -8.62302e-07 0.0
0.000104936 -1.04854e-06 0.0
0.000106431 -1.27016e-06 0.0
0.000108164 -1.49922e-06 0.0
0.000110147 -1.73015e-06 0.0
0.000112472 -1.98156e-06 0.0
0.000115224 -2.31305e-06 0.0
0.000118395 -2.6706e-06 0.0
0.000122104 -3.125e-06 0.0
0.000126299 -3.58497e-06 0.0
0.00013114 -4.11944e-06 0.0
0.000136686 -4.7228e-06 0.0
0.000142985 -5.39693e-06 0.0
0.000150057 -6.14182e-06 0.0
0.000158089 -6.91091e-06 0.0
0.000167118 -7.73214e-06 0.0
0.000177245 -8.64276e-06 0.0
0.000188531 -9.5869e-06 0.0
0.000201015 -1.0559e-05 0.0
0.00021468 -1.15608e-05 0.0
0.000229621 -1.25981e-05 0.0
0.000245686 -1.36205e-05 0.0
0.000262974 -1.45721e-05 0.0
0.000281254 -1.54437e-05 0.0
0.000300429 -1.61439e-05 0.0
0.000320331 -1.66748e-05 0.0
0.000340701 -1.69281e-05 0.0
0.000361188 -1.68854e-05 0.0
0.000381482 -1.65746e-05 0.0
0.000401033 -1.58652e-05 0.0
0.000419502 -1.47666e-05 0.0
0.000436481 -1.33496e-05 0.0
0.000451536 -1.15842e-05 0.0
0.000464346 -9.58226e-06 0.0
0.000474549 -7.35491e-06 0.0
0.000481991 -5.00828e-06 0.0
0.000486561 -2.49953e-06 0.0
0.000488034 3.91141e-08 0.0
0.000486518 2.57227e-06 0.0
0.000481969 5.06453e-06 0.0
0.000474603 7.43767e-06 0.0
0.00046434 9.65815e-06 0.0
0.000451573 1.16701e-05 0.0
0.000436497 1.34082e-05 0.0
0.000419589 1.48409e-05 0.0
0.000401104 1.58898e-05 0.0
0.000381654 1.66109e-05 0.0
0.000361368 1.69762e-05 0.0
0.000341069 1.69726e-05 0.0
0.000320661 1.66784e-05 0.0
0.000300892 1.61755e-05 0.0
0.00028159 1.54788e-05 0.0
0.000263368 1.46759e-05 0.0
0.000246078 1.37594e-05 0.0
0.000230111 1.27572e-05 0.0
0.000215165 1.17605e-05 0.0
0.000201599 1.07508e-05 0.0
0.000189074 9.73175e-06 0.0
0.000177842 8.75743e-06 0.0
0.000167631 7.83155e-06 0.0
0.000158616 7.0044e-06 0.0
0.000150488 6.19775e-06 0.0
0.000143408 5.46189e-06 0.0
0.000137027 4.78751e-06 0.0
0.000131522 4.17461e-06 0.0
0.000126601 3.63623e-06 0.0
0.000122415 3.1761e-06 0.0
0.000118659 2.77185e-06 0.0
0.000115521 2.41232e-06 0.0
0.000112698 2.07328e-06 0.0
0.000110339 1.78081e-06 0.0
0.000108265 1.53864e-06 0.0
0.000106542 1.32814e-06 0.0
0.000105023 1.14186e-06 0.0
0.000103754 9.7793e-07 0.0
0.000102706 8.25182e-07 0.0
0.0001018 6.91062e-07 0.0
0.000101014 5.81159e-07 0.0
0.000100339 4.71258e-07 0.0
9.97905e-05 4.11649e-07 0.0
9.93485e-05 3.55767e-07 0.0
9.90014e-05 3.03611e-07 0.0
9.87065e-05 2.71944e-07 0.0
9.84283e-05 2.32828e-07 0.0
9.82713e-05 1.86261e-07 0.0
9.81477e-05 1.41557e-07 0.0
9.80819e-05 1.34106e-07 0.0
0.000160953 -6.51901e-08 0.0
0.000160983 -1.4528e-07 0.0
0.000161118 -2.36544e-07 0.0
0.000161294 -3.5202e-07 0.0
0.000161587 -4.50732e-07 0.0
0.000161953 -5.68068e-07 0.0
0.00016245 -7.09614e-07 0.0
0.000162985 -8.62335e-07 0.0
0.000163707 -1.05044e-06 0.0
0.000164559 -1.24972e-06 0.0
0.000165638 -1.47507e-06 0.0
0.000166875 -1.74511e-06 0.0
0.000168308 -2.07289e-06 0.0
0.000170036 -2.45468e-06 0.0
0.000172076 -2.91468e-06 0.0
0.000174474 -3.40261e-06 0.0
0.000177234 -3.97434e-06 0.0
0.000180427 -4.63546e-06 0.0
0.000184138 -5.3599e-06 0.0
0.000188435 -6.18862e-06 0.0
0.000193444 -7.14583e-06 0.0
0.000199214 -8.22408e-06 0.0
0.000205811 -9.44572e-06 0.0
0.000213386 -1.07865e-05 0.0
0.000221981 -1.22894e-05 0.0
0.000231769 -1.40138e-05 0.0
0.000242746 -1.58593e-05 0.0
0.000255159 -1.78742e-05 0.0
0.000269039 -2.00176e-05 0.0
0.000284582 -2.23193e-05 0.0
0.000301839 -2.47774e-05 0.0
0.000320867 -2.72933e-05 0.0
0.000341644 -2.98501e-05 0.0
0.000364266 -3.23883e-05 0.0
0.000388597 -3.4826e-05 0.0
0.000414639 -3.71334e-05 0.0
0.000442168 -3.9195e-05 0.0
0.000470968 -4.08749e-05 0.0
0.000500787 -4.21173e-05 0.0
0.000531259 -4.27433e-05 0.0
0.00056185 -4.263e-05 0.0
0.000592043 -4.17141e-05 0.0
0.000621186 -3.98988e-05 0.0
0.000648671 -3.7156e-05 0.0
0.000673859 -3.3564e-05 0.0
0.000696216 -2.91543e-05 0.0
0.000715153 -2.40647e-05 0.0
0.00073029 -1.84739e-05 0.0
0.000741307 -1.24788e-05 0.0
0.000748034 -6.2451e-06 0.0
0.000750264 1.49006e-08 0.0
0.000748056 6.32356e-06 0.0
0.000741339 1.25188e-05 0.0
0.000730425 1.84517e-05 0.0
0.000715279 2.40103e-05 0.0
0.000696398 2.90251e-05 0.0
0.000674061 3.339e-05 0.0
0.000649 3.6954e-05 0.0
0.000621539 3.96406e-05 0.0
0.000592558 4.14666e-05 0.0
0.000562352 4.24207e-05 0.0
0.000531996 4.25794e-05 0.0
0.000501519 4.195e-05 0.0
0.000471821 4.07412e-05 0.0
0.000442907 3.90517e-05 0.0
0.000415479 3.70194e-05 0.0
0.000389403 3.47355e-05 0.0
0.000365168 3.2284e-05 0.0
0.000342515 2.97597e-05 0.0
0.000321835 2.72206e-05 0.0
0.000302773 2.47429e-05 0.0
0.000285559 2.23583e-05 0.0
0.000269912 2.00594e-05 0.0
0.000256042 1.79264e-05 0.0
0.000243513 1.58846e-05 0.0
0.000232463 1.40552e-05 0.0
0.0002226 1.236e-05 0.0
0.000214019 1.08715e-05 0.0
0.00020636 9.52275e-06 0.0
0.000199749 8.31373e-06 0.0
0.000193879 7.24071e-06 0.0
0.000188876 6.28506e-06 0.0
0.000184451 5.40393e-06 0.0
0.000180705 4.64202e-06 0.0
0.00017745 3.96022e-06 0.0
0.000174688 3.3753e-06 0.0
0.000172253 2.87048e-06 0.0
0.000170225 2.44389e-06 0.0
0.000168486 2.06575e-06 0.0
0.000167025 1.7081e-06 0.0
0.000165755 1.41564e-06 0.0
0.000164683 1.153e-06 0.0
0.000163816 9.48097e-07 0.0
0.000163088 7.76727e-07 0.0
0.000162501 6.10947e-07 0.0
0.000161971 4.54482e-07 0.0
0.000161582 3.57623e-07 0.0
0.000161302 2.58903e-07 0.0
0.000161063 1.41557e-07 0.0
0.000161 3.91143e-08 0.0
0.00022113 6.33275e-08 0.0
0.000221185 -9.87158e-08 0.0
0.000221344 -3.03596e-07 0.0
0.000221596 -5.17786e-07 0.0
0.000221989 -7.45011e-07 0.0
0.000222489 -9.74096e-07 0.0
0.000223128 -1.25719e-06 0.0
0.000223905 -1.56636e-06 0.0
0.000224858 -1.90346e-06 0.0
0.000226016 -2.3076e-06 0.0
0.000227468 -2.76017e-06 0.0
0.000229117 -3.30398e-06 0.0
0.000231067 -3.90181e-06 0.0
0.000233358 -4.58343e-06 0.0
0.000236054 -5.38796e-06 0.0
0.000239235 -6.31913e-06 0.0
0.000242884 -7.40487e-06 0.0
0.000247121 -8.59675e-06 0.0
0.000252031 -9.9972e-06 0.0
0.000257684 -1.15559e-05 0.0
0.000264174 -1.33046e-05 0.0
0.0002717 -1.53159e-05 0.0
0.000280271 -1.7532e-05 0.0
0.000290065 -2.00367e-05 0.0
0.00030116 -2.28021e-05 0.0
0.000313785 -2.58916e-05 0.0
0.000327942 -2.92361e-05 0.0
0.000343867 -3.28768e-05 0.0
0.000361664 -3.68079e-05 0.0
0.000381486 -4.09737e-05 0.0
0.000403451 -4.53257e-05 0.0
0.000427613 -4.98547e-05 0.0
0.000453956 -5.44506e-05 0.0
0.000482575 -5.90038e-05 0.0
0.000513304 -6.34212e-05 0.0
0.000546144 -6.75462e-05 0.0
0.000580773 -7.11889e-05 0.0
0.000617011 -7.41856e-05 0.0
0.000654414 -7.62941e-05 0.0
0.000692621 -7.73281e-05 0.0
0.000730925 -7.70587e-05 0.0
0.000768691 -7.53218e-05 0.0
0.00080513 -7.19872e-05 0.0
0.000839482 -6.70285e-05 0.0
0.000870917 -6.04812e-05 0.0
0.000898756 -5.25184e-05 0.0
0.000922302 -4.33187e-05 0.0
0.000941107 -3.32285e-05 0.0
0.000954745 -2.24544e-05 0.0
0.000963043 -1.12814e-05 0.0
0.000965807 7.4503e-08 0.0
0.000963129 1.13899e-05 0.0
0.000954866 2.25212e-05 0.0
0.000941359 3.32859e-05 0.0
0.0009226 4.33525e-05 0.0
0.000899202 5.25066e-05 0.0
0.000871424 6.04316e-05 0.0
0.000840142 6.69391e-05 0.0
0.000805845 7.18763e-05 0.0
0.000769614 7.52059e-05 0.0
0.000731893 7.69707e-05 0.0
0.000693766 7.72656e-05 0.0
0.000655583 7.6221e-05 0.0
0.000618268 7.41107e-05 0.0
0.000581955 7.11602e-05 0.0
0.000547416 6.75538e-05 0.0
0.00051453 6.34779e-05 0.0
0.000483884 5.9102e-05 0.0
0.000455249 5.45714e-05 0.0
0.000429008 4.99868e-05 0.0
0.000404797 4.55139e-05 0.0
0.000382864 4.11528e-05 0.0
0.000362915 3.7032e-05 0.0
0.000345086 3.31199e-05 0.0
0.000328979 2.94499e-05 0.0
0.000314777 2.60557e-05 0.0
0.000302046 2.30042e-05 0.0
0.000290918 2.02098e-05 0.0
0.000281001 1.77285e-05 0.0
0.000272402 1.55135e-05 0.0
0.000264795 1.35146e-05 0.0
0.000258231 1.17468e-05 0.0
0.000252451 1.01466e-05 0.0
0.000247506 8.75128e-06 0.0
0.000243205 7.53113e-06 0.0
0.00023953 6.46932e-06 0.0
0.000236347 5.53046e-06 0.0
0.000233623 4.72014e-06 0.0
0.000231265 3.98062e-06 0.0
0.00022931 3.35659e-06 0.0
0.000227593 2.82197e-06 0.0
0.000226191 2.38982e-06 0.0
0.000225008 2.01168e-06 0.0
0.000224031 1.66521e-06 0.0
0.000223208 1.33179e-06 0.0
0.000222549 1.05984e-06 0.0
0.000222024 8.5308e-07 0.0
0.000221639 6.53776e-07 0.0
0.000221319 4.61924e-07 0.0
0.000221206 2.71938e-07 0.0
0.000278537 -3.35263e-08 0.0
0.000278613 -3.24086e-07 0.0
0.000278764 -6.25817e-07 0.0
0.000279118 -9.55483e-07 0.0
0.000279562 -1.29632e-06 0.0
0.000280186 -1.6893e-06 0.0
0.000280957 -2.11394e-06 0.0
0.000281905 -2.57955e-06 0.0
0.000283099 -3.16995e-06 0.0
0.000284535 -3.76964e-06 0.0
0.00028626 -4.47549e-06 0.0
0.000288275 -5.31915e-06 0.0
0.000290646 -6.28386e-06 0.0
0.000293405 -7.37334e-06 0.0
0.000296627 -8.62857e-06 0.0
0.000300439 -1.00756e-05 0.0
0.000304808 -1.17498e-05 0.0
0.000309904 -1.36438e-05 0.0
0.000315752 -1.58413e-05 0.0
0.000322488 -1.82828e-05 0.0
0.000330159 -2.10408e-05 0.0
0.000339032 -2.41452e-05 0.0
0.000349092 -2.76128e-05 0.0
0.000360644 -3.14732e-05 0.0
0.000373608 -3.57508e-05 0.0
0.000388368 -4.04772e-05 0.0
0.000404919 -4.56504e-05 0.0
0.000423501 -5.12818e-05 0.0
0.00044418 -5.728e-05 0.0
0.000467183 -6.36712e-05 0.0
0.000492602 -7.03547e-05 0.0
0.000520513 -7.72543e-05 0.0
0.000550897 -8.42544e-05 0.0
0.000583838 -9.11876e-05 0.0
0.000619192 -9.7862e-05 0.0
0.000656926 -0.000104077 0.0
0.000696697 -0.000109582 0.0
0.000738271 -0.00011407 0.0
0.000781206 -0.000117222 0.0
0.000824967 -0.000118692 0.0
0.000868838 -0.000118197 0.0
0.000912088 -0.000115455 0.0
0.00095378 -0.000110309 0.0
0.000993113 -0.000102648 0.0
0.00102907 -9.2576e-05 0.0
0.00106081 -8.02611e-05 0.0
0.00108756 -6.61356e-05 0.0
0.00110885 -5.06278e-05 0.0
0.00112422 -3.41734e-05 0.0
0.00113356 -1.71931e-05 0.0
0.00113666 2.60761e-08 0.0
0.00113367 1.719e-05 0.0
0.00112448 3.41329e-05 0.0
0.00110926 5.05343e-05 0.0
0.00108808 6.59526e-05 0.0
0.00106153 8.0021e-05 0.0
0.00102986 9.22194e-05 0.0
0.000994119 0.000102254 0.0
0.000954896 0.000109875 0.0
0.000913383 0.000115051 0.0
0.000870207 0.000117813 0.0
0.00082653 0.000118328 0.0
0.000782782 0.000116885 0.0
0.000739975 0.000113764 0.0
0.000698348 0.000109321 0.0
0.000658659 0.000103872 0.0
0.000620873 9.7699e-05 0.0
0.000585589 9.10485e-05 0.0
0.000552571 8.41763e-05 0.0
0.000522274 7.72463e-05 0.0
0.000494307 7.03889e-05 0.0
0.00046891 6.3755e-05 0.0
0.000445736 5.74266e-05 0.0
0.000424982 5.14206e-05 0.0
0.000406236 4.58411e-05 0.0
0.000389648 4.06454e-05 0.0
0.000374777 3.5936e-05 0.0
0.000361679 3.16681e-05 0.0
0.00035008 2.78007e-05 0.0
0.000339907 2.43208e-05 0.0
0.000330913 2.12322e-05 0.0
0.000323125 1.84695e-05 0.0
0.000316268 1.60217e-05 0.0
0.000310404 1.38329e-05 0.0
0.000305265 1.19142e-05 0.0
0.000300871 1.02321e-05 0.0
0.000297004 8.76975e-06 0.0
0.000293727 7.46207e-06 0.0
0.000290881 6.33322e-06 0.0
0.00028851 5.34036e-06 0.0
0.000286463 4.49653e-06 0.0
0.000284753 3.7831e-06 0.0
0.000283278 3.14232e-06 0.0
0.000282079 2.58723e-06 0.0
0.000281088 2.08244e-06 0.0
0.0002803 1.64843e-06 0.0
0.000279652 1.26844e-06 0.0
0.00027916 9.01503e-07 0.0
0.000278786 5.6623e-07 0.0
0.000278632 2.71938e-07 0.0
0.000333116 6.89153e-08 0.0
0.000333211 -3.65062e-07 0.0
0.00033338 -8.06485e-07 0.0
0.000333771 -1.27211e-06 0.0
0.000334268 -1.80852e-06 0.0
0.000334979 -2.35422e-06 0.0
0.000335868 -3.02098e-06 0.0
0.000336963 -3.72126e-06 0.0
0.000338333 -4.50162e-06 0.0
0.000339979 -5.41048e-06 0.0
0.000341896 -6.42363e-06 0.0
0.000344212 -7.62673e-06 0.0
0.000346888 -8.99185e-06 0.0
0.000350058 -1.05525e-05 0.0
0.000353688 -1.23366e-05 0.0
0.000357952 -1.43927e-05 0.0
0.000362854 -1.67262e-05 0.0
0.000368523 -1.93818e-05 0.0
0.000375026 -2.24006e-05 0.0
0.000382509 -2.58384e-05 0.0
0.000391025 -2.97324e-05 0.0
0.000400858 -3.40622e-05 0.0
0.000411968 -3.8906e-05 0.0
0.000424641 -4.43344e-05 0.0
0.000438912 -5.03123e-05 0.0
0.000455112 -5.68636e-05 0.0
0.000473212 -6.40314e-05 0.0
0.000493527 -7.17987e-05 0.0
0.0005161 -8.00707e-05 0.0
0.000541152 -8.88846e-05 0.0
0.000568751 -9.80896e-05 0.0
0.000599053 -0.000107626 0.0
0.000632014 -0.000117248 0.0
0.000667678 -0.000126822 0.0
0.000705985 -0.000135994 0.0
0.000746794 -0.000144527 0.0
0.000789785 -0.00015207 0.0
0.000834773 -0.000158225 0.0
0.000881167 -0.000162537 0.0
0.000928514 -0.000164555 0.0
0.000975993 -0.000163809 0.0
0.00102281 -0.000159976 0.0
0.00106795 -0.000152737 0.0
0.00111048 -0.000142006 0.0
0.00114929 -0.000127919 0.0
0.00118347 -0.000110762 0.0
0.00121207 -9.10533e-05 0.0
0.00123468 -6.95245e-05 0.0
0.00125089 -4.68273e-05 0.0
0.00126066 -2.35239e-05 0.0
0.00126389 1.86258e-08 0.0
0.00126075 2.35769e-05 0.0
0.00125118 4.68305e-05 0.0
0.00123521 6.94404e-05 0.0
0.00121275 9.0924e-05 0.0
0.00118436 0.000110506 0.0
0.00115032 0.000127602 0.0
0.00111173 0.000141679 0.0
0.00106935 0.000152375 0.0
0.00102443 0.000159619 0.0
0.000977728 0.000163499 0.0
0.000930445 0.000164251 0.0
0.00088315 0.000162285 0.0
0.000836873 0.000158042 0.0
0.000791852 0.000151977 0.0
0.000748898 0.000144489 0.0
0.000708026 0.000136 0.0
0.00066979 0.000126875 0.0
0.000634067 0.000117388 0.0
0.000601133 0.00010785 0.0
0.000570787 9.8399e-05 0.0
0.000543163 8.91868e-05 0.0
0.00051792 8.04218e-05 0.0
0.000495282 7.21262e-05 0.0
0.000474794 6.4382e-05 0.0
0.0004566 5.72284e-05 0.0
0.000440313 5.06635e-05 0.0
0.000425902 4.46948e-05 0.0
0.000413098 3.92794e-05 0.0
0.000401877 3.43837e-05 0.0
0.000391951 3.00432e-05 0.0
0.000383296 2.61759e-05 0.0
0.000375662 2.27464e-05 0.0
0.000369092 1.97025e-05 0.0
0.000363371 1.70125e-05 0.0
0.000358429 1.46579e-05 0.0
0.000354117 1.25697e-05 0.0
0.000350439 1.07516e-05 0.0
0.000347234 9.16268e-06 0.0
0.000344538 7.77863e-06 0.0
0.000342161 6.59392e-06 0.0
0.000340197 5.52843e-06 0.0
0.000338536 4.61755e-06 0.0
0.000337194 3.79236e-06 0.0
0.000336041 3.0864e-06 0.0
0.000335125 2.45867e-06 0.0
0.000334387 1.8887e-06 0.0
0.000333822 1.40627e-06 0.0
0.000333422 9.70413e-07 0.0
0.000333207 5.19661e-07 0.0
0.000384793 -4.09766e-08 0.0
0.000384899 -6.27684e-07 0.0
0.000385101 -1.23673e-06 0.0
0.00038551 -1.85137e-06 0.0
0.000386067 -2.53118e-06 0.0
0.000386864 -3.26313e-06 0.0
0.000387804 -4.11241e-06 0.0
0.000389027 -5.05667e-06 0.0
0.000390496 -6.09777e-06 0.0
0.000392279 -7.30461e-06 0.0
0.00039435 -8.67348e-06 0.0
0.000396841 -1.02491e-05 0.0
0.000399741 -1.20574e-05 0.0
0.000403147 -1.41079e-05 0.0
0.000407018 -1.6447e-05 0.0
0.000411547 -1.91548e-05 0.0
0.000416796 -2.22184e-05 0.0
0.000422837 -2.5727e-05 0.0
0.000429696 -2.96993e-05 0.0
0.00043761 -3.42004e-05 0.0
0.000446585 -3.92156e-05 0.0
0.000456954 -4.48676e-05 0.0
0.000468578 -5.11713e-05 0.0
0.000481858 -5.82069e-05 0.0
0.000496823 -6.59446e-05 0.0
0.000513689 -7.44569e-05 0.0
0.000532545 -8.37364e-05 0.0
0.000553721 -9.37608e-05 0.0
0.000577156 -0.000104498 0.0
0.000603142 -0.000115828 0.0
0.000631698 -0.000127717 0.0
0.000663061 -0.000139957 0.0
0.000697149 -0.000152326 0.0
0.00073402 -0.000164619 0.0
0.000773603 -0.000176446 0.0
0.000815769 -0.000187424 0.0
0.000860173 -0.000197107 0.0
0.00090667 -0.000205005 0.0
0.000954632 -0.000210532 0.0
0.0010036 -0.000213092 0.0
0.00105273 -0.000212147 0.0
0.00110127 -0.000207162 0.0
0.00114807 -0.000197757 0.0
0.00119213 -0.00018376 0.0
0.00123221 -0.000165293 0.0
0.0012673 -0.000142762 0.0
0.00129637 -0.00011699 0.0
0.00131908 -8.90135e-05 0.0
0.00133507 -5.97904e-05 0.0
0.00134461 -3.00205e-05 0.0
0.00134777 -9.6854e-08 0.0
0.00134475 2.98129e-05 0.0
0.0013354 5.95412e-05 0.0
0.00131961 8.86651e-05 0.0
0.00129714 0.00011652 0.0
0.00126823 0.000142156 0.0
0.00123333 0.000164595 0.0
0.0011935 0.000183037 0.0
0.00114963 0.000197031 0.0
0.0011031 0.000206427 0.0
0.00105474 0.000211494 0.0
0.00100579 0.000212551 0.0
0.000956901 0.000210067 0.0
0.000909067 0.000204614 0.0
0.000862526 0.00019679 0.0
0.000818136 0.00018716 0.0
0.000775957 0.000176264 0.0
0.000736421 0.000164554 0.0
0.000699516 0.000152374 0.0
0.000665448 0.000140087 0.0
0.000633994 0.00012794 0.0
0.000605353 0.000116113 0.0
0.000579219 0.000104803 0.0
0.000555642 9.41228e-05 0.0
0.000534344 8.41133e-05 0.0
0.000515389 7.48639e-05 0.0
0.000498353 6.63672e-05 0.0
0.00048328 5.86026e-05 0.0
0.000469847 5.15814e-05 0.0
0.000458053 4.5201e-05 0.0
0.000447624 3.95192e-05 0.0
0.000438515 3.4456e-05 0.0
0.000430439 2.99963e-05 0.0
0.000423479 2.60321e-05 0.0
0.000417371 2.24965e-05 0.0
0.000412112 1.93893e-05 0.0
0.000407497 1.66584e-05 0.0
0.000403564 1.42442e-05 0.0
0.00040009 1.21579e-05 0.0
0.000397182 1.03175e-05 0.0
0.00039465 8.73228e-06 0.0
0.000392531 7.31101e-06 0.0
0.00039075 6.11513e-06 0.0
0.000389259 5.01427e-06 0.0
0.000388 4.04939e-06 0.0
0.000386978 3.20373e-06 0.0
0.000386183 2.43258e-06 0.0
0.00038561 1.75644e-06 0.0
0.000385153 1.15295e-06 0.0
0.000384885 5.56913e-07 0.0
0.000433505 6.51901e-08 0.0
0.000433616 -7.09636e-07 0.0
0.000433837 -1.48818e-06 0.0
0.000434272 -2.33004e-06 0.0
0.000434863 -3.17934e-06 0.0
0.000435676 -4.12175e-06 0.0
0.00043667 -5.18335e-06 0.0
0.000437947 -6.40326e-06 0.0
0.000439507 -7.75166e-06 0.0
0.000441361 -9.23228e-06 0.0
0.000443474 -1.09364e-05 0.0
0.000446077 -1.29105e-05 0.0
0.000449086 -1.51565e-05 0.0
0.000452577 -1.77545e-05 0.0
0.000456553 -2.07045e-05 0.0
0.000461165 -2.40492e-05 0.0
0.000466502 -2.78745e-05 0.0
0.000472649 -3.22099e-05 0.0
0.000479621 -3.7119e-05 0.0
0.000487626 -4.26537e-05 0.0
0.000496736 -4.88849e-05 0.0
0.00050714 -5.58442e-05 0.0
0.000518863 -6.36341e-05 0.0
0.000532185 -7.22563e-05 0.0
0.000547154 -8.18413e-05 0.0
0.000564009 -9.23444e-05 0.0
0.000582874 -0.000103723 0.0
0.000603956 -0.000115972 0.0
0.00062727 -0.000129114 0.0
0.000653094 -0.000142993 0.0
0.000681494 -0.000157491 0.0
0.00071262 -0.00017251 0.0
0.000746434 -0.000187651 0.0
0.000783025 -0.000202687 0.0
0.000822282 -0.000217163 0.0
0.000864111 -0.000230653 0.0
0.000908196 -0.000242557 0.0
0.000954369 -0.00025226 0.0
0.00100204 -0.000259081 0.0
0.00105069 -0.000262267 0.0
0.00109953 -0.000261116 0.0
0.00114784 -0.00025498 0.0
0.00119444 -0.000243369 0.0
0.00123828 -0.000226007 0.0
0.00127795 -0.000202902 0.0
0.00131242 -0.000174665 0.0
0.00134045 -0.000142419 0.0
0.00136179 -0.000107722 0.0
0.00137638 -7.19413e-05 0.0
0.0013849 -3.59452e-05 0.0
0.00138765 -7.07779e-08 0.0
0.00138504 3.57863e-05 0.0
0.00137671 7.1654e-05 0.0
0.00136229 0.000107312 0.0
0.00134113 0.00014191 0.0
0.0013133 0.000174009 0.0
0.00127909 0.000202169 0.0
0.00123966 0.000225218 0.0
0.00119604 0.000242629 0.0
0.00114967 0.000254294 0.0
0.00110161 0.000260487 0.0
0.00105298 0.000261744 0.0
0.00100438 0.000258683 0.0
0.000956879 0.000251939 0.0
0.000910724 0.000242344 0.0
0.000866672 0.000230582 0.0
0.00082483 0.000217246 0.0
0.000785648 0.000202905 0.0
0.000748999 0.000187985 0.0
0.000715193 0.000172886 0.0
0.000683964 0.00015799 0.0
0.000655494 0.000143536 0.0
0.000629486 0.000129653 0.0
0.000606053 0.000116566 0.0
0.000584801 0.000104297 0.0
0.000565838 9.29279e-05 0.0
0.000548774 8.24695e-05 0.0
0.00053369 7.28998e-05 0.0
0.000520221 6.42355e-05 0.0
0.000508343 5.64244e-05 0.0
0.000497847 4.93883e-05 0.0
0.00048864 4.31086e-05 0.0
0.000480475 3.7548e-05 0.0
0.000473386 3.26282e-05 0.0
0.000467153 2.82747e-05 0.0
0.000461781 2.44057e-05 0.0
0.000457059 2.10023e-05 0.0
0.000453021 1.80162e-05 0.0
0.000449465 1.54046e-05 0.0
0.000446437 1.31059e-05 0.0
0.000443834 1.11072e-05 0.0
0.000441628 9.3525e-06 0.0
0.000439788 7.80643e-06 0.0
0.000438191 6.43547e-06 0.0
0.000436888 5.23403e-06 0.0
0.000435837 4.17416e-06 0.0
0.000434983 3.22978e-06 0.0
0.000434373 2.3711e-06 0.0
0.000433907 1.57017e-06 0.0
0.000433625 8.34438e-07 0.0
0.000479252 -4.47018e-08 0.0
0.000479375 -9.61082e-07 0.0
0.0004796 -1.90539e-06 0.0
0.000480033 -2.87949e-06 0.0
0.000480631 -3.93552e-06 0.0
0.000481466 -5.08095e-06 0.0
0.000482441 -6.37908e-06 0.0
0.000483746 -7.81875e-06 0.0
0.000485302 -9.43534e-06 0.0
0.000487193 -1.12754e-05 0.0
0.00048931 -1.3324e-05 0.0
0.000491849 -1.56837e-05 0.0
0.00049479 -1.8399e-05 0.0
0.000498259 -2.14868e-05 0.0
0.000502195 -2.49862e-05 0.0
0.000506748 -2.89939e-05 0.0
0.000511969 -3.35306e-05 0.0
0.000517942 -3.87097e-05 0.0
0.000524744 -4.45945e-05 0.0
0.000532562 -5.11442e-05 0.0
0.000541392 -5.85021e-05 0.0
0.000551453 -6.67911e-05 0.0
0.000562758 -7.60298e-05 0.0
0.000575592 -8.62405e-05 0.0
0.000589948 -9.75444e-05 0.0
0.000606146 -0.000109889 0.0
0.000624245 -0.000123351 0.0
0.000644398 -0.000137832 0.0
0.000666679 -0.000153309 0.0
0.000691341 -0.000169644 0.0
0.000718404 -0.000186777 0.0
0.000748088 -0.000204403 0.0
0.000780308 -0.000222235 0.0
0.00081518 -0.000239949 0.0
0.000852619 -0.000256991 0.0
0.000892453 -0.000272893 0.0
0.000934471 -0.000286914 0.0
0.000978509 -0.000298351 0.0
0.00102392 -0.000306447 0.0
0.00107029 -0.000310244 0.0
0.0011168 -0.000308906 0.0
0.00116283 -0.000301688 0.0
0.00120718 -0.000287915 0.0
0.00124889 -0.000267099 0.0
0.00128639 -0.000239206 0.0
0.00131846 -0.000204927 0.0
0.00134372 -0.000165862 0.0
0.00136194 -0.000124305 0.0
0.0013736 -8.2254e-05 0.0
0.00137998 -4.08679e-05 0.0
0.00138195 -2.01158e-07 0.0
0.00138007 4.04243e-05 0.0
0.00137381 8.16714e-05 0.0
0.00136231 0.000123544 0.0
0.00134424 0.000164986 0.0
0.00131918 0.000203924 0.0
0.00128737 0.000238122 0.0
0.00125012 0.000265942 0.0
0.0012087 0.000286754 0.0
0.00116455 0.000300619 0.0
0.00111879 0.000307972 0.0
0.00107247 0.000309399 0.0
0.00102618 0.000305727 0.0
0.000980959 0.000297764 0.0
0.000937028 0.000286465 0.0
0.000895051 0.000272618 0.0
0.000855197 0.000256883 0.0
0.000817885 0.000239999 0.0
0.000782949 0.000222426 0.0
0.000750713 0.000204701 0.0
0.000720964 0.000187172 0.0
0.00069383 0.00017014 0.0
0.000668981 0.000153861 0.0
0.000646583 0.000138453 0.0
0.000626232 0.000123973 0.0
0.000608065 0.000110548 0.0
0.000591688 9.8216e-05 0.0
0.000577129 8.69436e-05 0.0
0.00056417 7.66995e-05 0.0
0.000552724 6.74615e-05 0.0
0.000542537 5.91307e-05 0.0
0.000533606 5.1696e-05 0.0
0.000525669 4.5081e-05 0.0
0.000518748 3.92186e-05 0.0
0.000512656 3.40027e-05 0.0
0.000507379 2.94127e-05 0.0
0.000502744 2.53425e-05 0.0
0.000498766 2.17976e-05 0.0
0.000495228 1.86532e-05 0.0
0.000492233 1.58963e-05 0.0
0.000489641 1.3484e-05 0.0
0.000487449 1.13493e-05 0.0
0.000485595 9.4642e-06 0.0
0.000483998 7.81756e-06 0.0
0.000482704 6.3572e-06 0.0
0.000481634 5.04214e-06 0.0
0.000480763 3.85562e-06 0.0
0.000480145 2.79764e-06 0.0
0.000479669 1.80672e-06 0.0
0.000479387 8.6424e-07 0.0
0.000522005 7.4503e-08 0.0
0.000522101 -1.0151e-06 0.0
0.000522334 -2.15125e-06 0.0
0.000522752 -3.32463e-06 0.0
0.00052333 -4.593e-06 0.0
0.00052415 -5.96751e-06 0.0
0.000525128 -7.45561e-06 0.0
0.000526397 -9.14858e-06 0.0
0.000527887 -1.10427e-05 0.0
0.000529698 -1.31919e-05 0.0
0.000531729 -1.56112e-05 0.0
0.000534164 -1.836e-05 0.0
0.000536971 -2.14776e-05 0.0
0.00054027 -2.50478e-05 0.0
0.000543982 -2.90723e-05 0.0
0.000548274 -3.37002e-05 0.0
0.000553152 -3.89352e-05 0.0
0.000558781 -4.48667e-05 0.0
0.000565149 -5.15561e-05 0.0
0.000572457 -5.91152e-05 0.0
0.000580617 -6.75606e-05 0.0
0.000589937 -7.70582e-05 0.0
0.000600396 -8.76265e-05 0.0
0.000612237 -9.93159e-05 0.0
0.000625461 -0.000112203 0.0
0.000640317 -0.000126292 0.0
0.000656883 -0.0001416 0.0
0.000675336 -0.000158107 0.0
0.000695746 -0.000175718 0.0
0.000718267 -0.000194379 0.0
0.000743015 -0.000213899 0.0
0.000770085 -0.000233977 0.0
0.000799458 -0.000254333 0.0
0.000831267 -0.000274494 0.0
0.000865344 -0.000293971 0.0
0.000901648 -0.000312113 0.0
0.000939904 -0.000328144 0.0
0.000979922 -0.000341208 0.0
0.00102116 -0.00035044 0.0
0.00106321 -0.000354757 0.0
0.00110521 -0.000353213 0.0
0.00114664 -0.000344895 0.0
0.00118645 -0.000329022 0.0
0.0012237 -0.000304866 0.0
0.00125688 -0.000272169 0.0
0.00128453 -0.000231564 0.0
0.00130489 -0.000185137 0.0
0.00131775 -0.000136579 0.0
0.00132447 -8.89403e-05 0.0
0.00132728 -4.3671e-05 0.0
0.00132793 -1.39693e-07 0.0
0.00132732 4.33635e-05 0.0
0.00132453 8.84944e-05 0.0
0.00131796 0.000135909 0.0
0.0013052 0.000184286 0.0
0.00128503 0.000230551 0.0
0.00125761 0.000271053 0.0
0.0012246 0.000303699 0.0
0.00118765 0.000327832 0.0
0.0011481 0.00034379 0.0
0.00110694 0.000352209 0.0
0.00106513 0.000353863 0.0
0.00102324 0.000349687 0.0
0.000982215 0.000340641 0.0
0.000942292 0.000327745 0.0
0.000904118 0.00031193 0.0
0.000867863 0.000293999 0.0
0.000833848 0.000274744 0.0
0.000802021 0.000254737 0.0
0.000772643 0.000234528 0.0
0.000745522 0.000214529 0.0
0.000720752 0.000195121 0.0
0.000698049 0.000176553 0.0
0.000677547 0.000158971 0.0
0.000658901 0.000142488 0.0
0.000642254 0.000127152 0.0
0.000627214 0.000113042 0.0
0.000613817 0.000100183 0.0
0.000601819 8.85079e-05 0.0
0.00059123 7.79174e-05 0.0
0.000581751 6.84055e-05 0.0
0.000573473 5.98513e-05 0.0
0.000566065 5.22452e-05 0.0
0.000559608 4.54868e-05 0.0
0.000553865 3.95202e-05 0.0
0.000548918 3.42558e-05 0.0
0.000544512 2.95914e-05 0.0
0.000540733 2.54783e-05 0.0
0.00053739 2.18496e-05 0.0
0.000534561 1.86717e-05 0.0
0.000532077 1.58571e-05 0.0
0.000529987 1.34187e-05 0.0
0.000528198 1.12244e-05 0.0
0.000526662 9.30954e-06 0.0
0.000525364 7.58282e-06 0.0
0.000524334 6.04796e-06 0.0
0.000523502 4.69194e-06 0.0
0.000522883 3.45328e-06 0.0
0.000522408 2.25747e-06 0.0
0.00052215 1.1399e-06 0.0
0.000561799 3.72515e-09 0.0
0.000561853 -1.2535e-06 0.0
0.000562087 -2.54425e-06 0.0
0.000562465 -3.8685e-06 0.0
0.000563013 -5.31566e-06 0.0
0.000563795 -6.89504e-06 0.0
0.000564714 -8.58802e-06 0.0
0.000565875 -1.05212e-05 0.0
0.000567225 -1.26649e-05 0.0
0.000568894 -1.50693e-05 0.0
0.000570772 -1.77958e-05 0.0
0.000573013 -2.08706e-05 0.0
0.000575538 -2.43812e-05 0.0
0.000578548 -2.83685e-05 0.0
0.000581927 -3.29294e-05 0.0
0.000585805 -3.80843e-05 0.0
0.000590175 -4.39302e-05 0.0
0.000595198 -5.05768e-05 0.0
0.000600873 -5.80353e-05 0.0
0.000607356 -6.6451e-05 0.0
0.000614579 -7.5889e-05 0.0
0.000622798 -8.64649e-05 0.0
0.000632028 -9.81804e-05 0.0
0.000642398 -0.00011119 0.0
0.000653958 -0.000125483 0.0
0.000666924 -0.000141103 0.0
0.000681355 -0.000158064 0.0
0.000697403 -0.000176368 0.0
0.000715075 -0.00019591 0.0